<?xml version="1.0" encoding="ISO-8859-1"?>
<modeling>
 <generator>
  <i name="program" type="string">vasp </i>
  <i name="version" type="string">6.4.3  </i>
  <i name="subversion" type="string">19Mar24 (build Oct 21 2024 22:36:34) complex                          parallel </i>
  <i name="platform" type="string">LinuxIFC </i>
  <i name="date" type="string">2024 11 01 </i>
  <i name="time" type="string">22:56:11 </i>
 </generator>
 <incar>
  <i type="string" name="SYSTEM">Si64</i>
  <i type="int" name="ISTART">     0</i>
  <i type="string" name="PREC">Accurate</i>
  <i type="string" name="ALGO">Fast</i>
  <i type="logical" name="ADDGRID"> T  </i>
  <i type="int" name="ICHARG">     2</i>
  <i type="int" name="NELM">    60</i>
  <i type="int" name="NELMIN">     8</i>
  <i type="int" name="IBRION">     2</i>
  <i name="EDIFF">      0.00000100</i>
  <i name="EDIFFG">     -0.01000000</i>
  <i type="int" name="NSW">    60</i>
  <i type="int" name="ISIF">     2</i>
  <i name="ENCUT">    400.00000000</i>
  <i type="string" name="LREAL">Auto</i>
  <i type="int" name="ISMEAR">     1</i>
  <i name="SIGMA">      0.20000000</i>
  <i type="logical" name="LWAVE"> F  </i>
  <i type="logical" name="LCHARG"> F  </i>
  <i type="logical" name="GGA_COMPAT"> F  </i>
  <i type="string" name="GGA">PS</i>
 </incar>
 <primitive_cell>
  <structure name="primitive_cell" >
   <crystal>
    <varray name="basis" >
     <v>      -2.61273064       0.01989400      -2.65251839 </v>
     <v>      -2.61273064       0.01989400       2.65251839 </v>
     <v>       2.59283663       2.63262439       0.00000000 </v>
    </varray>
    <i name="volume">     36.76348206 </i>
    <varray name="rec_basis" >
     <v>      -0.18994622       0.18707550      -0.18850011 </v>
     <v>      -0.18994622       0.18707550       0.18850011 </v>
     <v>       0.00287074       0.37702174       0.00000000 </v>
    </varray>
   </crystal>
   <varray name="positions" >
    <v>       0.00000000       0.00000000       0.00000000 </v>
    <v>       0.75000000       0.25000000       0.50000000 </v>
   </varray>
  </structure>
  <varray name="primitive_index" >
   <v type="int" >        1 </v>
   <v type="int" >       15 </v>
  </varray>
 </primitive_cell>
 <kpoints>
  <generation param="Gamma">
   <v type="int" name="divisions">       2        2        2 </v>
   <v name="usershift">      0.00000000       0.00000000       0.00000000 </v>
   <v name="genvec1">      0.50000000      -0.00000000       0.00000000 </v>
   <v name="genvec2">     -0.00000000       0.50000000       0.00000000 </v>
   <v name="genvec3">      0.00000000       0.00000000       0.50000000 </v>
   <v name="shift">      0.00000000       0.00000000       0.00000000 </v>
  </generation>
  <varray name="kpointlist" >
   <v>       0.00000000       0.00000000       0.00000000 </v>
   <v>       0.50000000       0.00000000       0.00000000 </v>
   <v>       0.00000000       0.50000000       0.00000000 </v>
   <v>       0.50000000       0.50000000       0.00000000 </v>
   <v>       0.00000000       0.00000000       0.50000000 </v>
   <v>       0.50000000       0.00000000       0.50000000 </v>
   <v>       0.00000000       0.50000000       0.50000000 </v>
   <v>       0.50000000       0.50000000       0.50000000 </v>
  </varray>
  <varray name="weights" >
   <v>       0.12500000 </v>
   <v>       0.12500000 </v>
   <v>       0.12500000 </v>
   <v>       0.12500000 </v>
   <v>       0.12500000 </v>
   <v>       0.12500000 </v>
   <v>       0.12500000 </v>
   <v>       0.12500000 </v>
  </varray>
 </kpoints>
 <parameters>
  <separator name="general" >
   <i type="string" name="SYSTEM">Si64</i>
   <i type="logical" name="LCOMPAT"> F  </i>
  </separator>
  <separator name="electronic" >
   <i type="string" name="PREC">accura</i>
   <i name="ENMAX">    400.00000000</i>
   <i name="ENAUG">    322.06900000</i>
   <i name="EDIFF">      0.00000100</i>
   <i type="int" name="IALGO">    68</i>
   <i type="int" name="IWAVPR">    11</i>
   <i type="int" name="NBANDS">   162</i>
   <i type="int" name="NBANDSLOW">    -1</i>
   <i type="int" name="NBANDSHIGH">    -1</i>
   <i name="NELECT">    256.00000000</i>
   <i type="int" name="TURBO">     0</i>
   <i type="int" name="IRESTART">     0</i>
   <i type="int" name="NREBOOT">     0</i>
   <i type="int" name="NMIN">     0</i>
   <i name="EREF">      0.00000000</i>
   <separator name="electronic smearing" >
    <i type="int" name="ISMEAR">     1</i>
    <i name="SIGMA">      0.20000000</i>
    <i name="KSPACING">      0.50000000</i>
    <i type="logical" name="KGAMMA"> T  </i>
    <i type="logical" name="KBLOWUP"> T  </i>
   </separator>
   <separator name="electronic projectors" >
    <i type="logical" name="LREAL"> T  </i>
    <v name="ROPT">     -0.00025000</v>
    <i type="int" name="LMAXPAW">  -100</i>
    <i type="int" name="LMAXMIX">     2</i>
    <i type="logical" name="NLSPLINE"> F  </i>
   </separator>
   <separator name="electronic startup" >
    <i type="int" name="ISTART">     0</i>
    <i type="int" name="ICHARG">     2</i>
    <i type="int" name="INIWAV">     1</i>
   </separator>
   <separator name="electronic spin" >
    <i type="int" name="ISPIN">     1</i>
    <i type="logical" name="LNONCOLLINEAR"> F  </i>
    <v name="MAGMOM">      1.00000000      1.00000000      1.00000000      1.00000000      1.00000000      1.00000000      1.00000000      1.00000000      1.00000000      1.00000000      1.00000000      1.00000000      1.00000000      1.00000000      1.00000000      1.00000000      1.00000000      1.00000000      1.00000000      1.00000000
      1.00000000      1.00000000      1.00000000      1.00000000      1.00000000      1.00000000      1.00000000      1.00000000      1.00000000      1.00000000      1.00000000      1.00000000      1.00000000      1.00000000      1.00000000      1.00000000      1.00000000      1.00000000      1.00000000      1.00000000
      1.00000000      1.00000000      1.00000000      1.00000000      1.00000000      1.00000000      1.00000000      1.00000000      1.00000000      1.00000000      1.00000000      1.00000000      1.00000000      1.00000000      1.00000000      1.00000000      1.00000000      1.00000000      1.00000000      1.00000000
      1.00000000      1.00000000      1.00000000      1.00000000</v>
    <i name="NUPDOWN">     -1.00000000</i>
    <i type="logical" name="LSORBIT"> F  </i>
    <v name="SAXIS">      0.00000000      0.00000000      1.00000000</v>
    <i type="logical" name="LSPIRAL"> F  </i>
    <v name="QSPIRAL">      0.00000000      0.00000000      0.00000000</v>
    <i type="logical" name="LZEROZ"> F  </i>
   </separator>
   <separator name="electronic exchange-correlation" >
    <i type="logical" name="LASPH"> F  </i>
   </separator>
   <separator name="electronic convergence" >
    <i type="int" name="NELM">    60</i>
    <i type="int" name="NELMDL">    -5</i>
    <i type="int" name="NELMIN">     8</i>
    <i name="ENINI">    400.00000000</i>
    <separator name="electronic convergence detail" >
     <i type="logical" name="LDIAG"> T  </i>
     <i type="logical" name="LSUBROT"> F  </i>
     <i name="WEIMIN">      0.00100000</i>
     <i name="EBREAK">      0.00000000</i>
     <i name="DEPER">      0.30000000</i>
     <i type="int" name="NRMM">     4</i>
     <i name="TIME">      0.40000000</i>
    </separator>
   </separator>
   <separator name="electronic mixer" >
    <i name="AMIX">      0.40000000</i>
    <i name="BMIX">      1.00000000</i>
    <i name="AMIN">      0.10000000</i>
    <i name="AMIX_MAG">      1.60000000</i>
    <i name="BMIX_MAG">      1.00000000</i>
    <separator name="electronic mixer details" >
     <i type="int" name="IMIX">     4</i>
     <i type="logical" name="MIXFIRST"> F  </i>
     <i type="int" name="MAXMIX">   -45</i>
     <i name="WC">    100.00000000</i>
     <i type="int" name="INIMIX">     1</i>
     <i type="int" name="MIXPRE">     1</i>
     <i type="int" name="MREMOVE">     5</i>
    </separator>
   </separator>
   <separator name="electronic dipolcorrection" >
    <i type="logical" name="LDIPOL"> F  </i>
    <i type="logical" name="LMONO"> F  </i>
    <i type="int" name="IDIPOL">     0</i>
    <i name="EPSILON">      1.00000000</i>
    <v name="DIPOL">   -100.00000000   -100.00000000   -100.00000000</v>
    <i name="EFIELD">      0.00000000</i>
    <i type="logical" name="LVACPOTAV"> F  </i>
   </separator>
  </separator>
  <separator name="grids" >
   <i type="int" name="NGX">    70</i>
   <i type="int" name="NGY">    70</i>
   <i type="int" name="NGZ">    70</i>
   <i type="int" name="NGXF">   140</i>
   <i type="int" name="NGYF">   140</i>
   <i type="int" name="NGZF">   140</i>
   <i type="logical" name="ADDGRID"> T  </i>
  </separator>
  <separator name="ionic" >
   <i type="int" name="NSW">    60</i>
   <i type="int" name="IBRION">     2</i>
   <i type="int" name="MDALGO">     0</i>
   <i type="int" name="ISIF">     2</i>
   <i name="PSTRESS">      0.00000000</i>
   <i name="EDIFFG">     -0.01000000</i>
   <i type="int" name="NFREE">     1</i>
   <i name="POTIM">      0.50000000</i>
   <i name="SMASS">     -3.00000000</i>
   <i name="SCALEE">      1.00000000</i>
  </separator>
  <separator name="ionic md" >
   <i name="TEBEG">      0.00010000</i>
   <i name="TEEND">      0.00010000</i>
   <i type="int" name="NBLOCK">     1</i>
   <i type="int" name="KBLOCK">    60</i>
   <i type="int" name="NPACO">   256</i>
   <i name="APACO">     10.00000000</i>
  </separator>
  <separator name="symmetry" >
   <i type="int" name="ISYM">     2</i>
   <i name="SYMPREC">      0.00001000</i>
  </separator>
  <separator name="dos" >
   <i type="int" name="LORBIT">     0</i>
   <v name="RWIGS">     -1.00000000</v>
   <i type="int" name="NEDOS">   301</i>
   <i name="EMIN">     10.00000000</i>
   <i name="EMAX">    -10.00000000</i>
   <i name="EFERMI">      0.00000000</i>
  </separator>
  <separator name="writing" >
   <i type="int" name="NWRITE">     2</i>
   <i type="logical" name="LWAVE"> F  </i>
   <i type="logical" name="LDOWNSAMPLE"> F  </i>
   <i type="logical" name="LCHARG"> F  </i>
   <i type="logical" name="LPARD"> F  </i>
   <i type="logical" name="LVTOT"> F  </i>
   <i type="logical" name="LVHAR"> F  </i>
   <i type="logical" name="LELF"> F  </i>
   <i type="logical" name="LOPTICS"> F  </i>
   <v name="STM">      0.00000000      0.00000000      0.00000000      0.00000000      0.00000000      0.00000000      0.00000000</v>
  </separator>
  <separator name="performance" >
   <i type="int" name="NPAR">     2</i>
   <i type="int" name="NSIM">     4</i>
   <i type="int" name="NBLK">    -1</i>
   <i type="logical" name="LPLANE"> T  </i>
   <i type="logical" name="LSCALAPACK"> T  </i>
   <i type="logical" name="LSCAAWARE"> F  </i>
   <i type="logical" name="LSCALU"> F  </i>
   <i type="logical" name="LASYNC"> F  </i>
   <i type="logical" name="LORBITALREAL"> F  </i>
  </separator>
  <separator name="miscellaneous" >
   <i type="int" name="IDIOT">     3</i>
   <i type="int" name="PHON_NSTRUCT">    -1</i>
   <i type="logical" name="LMUSIC"> F  </i>
   <v name="POMASS">     28.08500000</v>
   <v name="DARWINR">      0.00000000</v>
   <v name="DARWINV">      1.00000000</v>
   <i type="logical" name="LCORR"> T  </i>
  </separator>
  <i type="logical" name="GGA_COMPAT"> F  </i>
  <i type="logical" name="LBERRY"> F  </i>
  <i type="int" name="ICORELEVEL">     0</i>
  <i type="logical" name="LDAU"> F  </i>
  <i type="int" name="I_CONSTRAINED_M">     0</i>
  <separator name="electronic exchange-correlation" >
   <i type="string" name="GGA    ">PS</i>
   <i type="string" name="XC_C">1</i>
   <i type="int" name="VOSKOWN">     0</i>
   <i type="logical" name="LHFCALC"> F  </i>
   <i type="string" name="PRECFOCK"></i>
   <i type="logical" name="LSYMGRAD"> F  </i>
   <i type="logical" name="LHFONE"> F  </i>
   <i type="logical" name="LRHFCALC"> F  </i>
   <i type="logical" name="LTHOMAS"> F  </i>
   <i type="logical" name="LMODELHF"> F  </i>
   <i type="logical" name="LFOCKACE"> F  </i>
   <i name="ENCUT4O">     -1.00000000</i>
   <i type="int" name="EXXOEP">     0</i>
   <i type="int" name="FOURORBIT">     0</i>
   <i name="AEXX">      0.00000000</i>
   <i name="HFALPHA">      0.00000000</i>
   <i name="MCALPHA">      0.00000000</i>
   <i name="ALDAX">      1.00000000</i>
   <i name="AGGAX">      1.00000000</i>
   <i name="AMGGAX">      1.00000000</i>
   <i name="ALDAC">      1.00000000</i>
   <i name="AGGAC">      1.00000000</i>
   <i name="AMGGAC">      1.00000000</i>
   <i type="int" name="NKREDX">     1</i>
   <i type="int" name="NKREDY">     1</i>
   <i type="int" name="NKREDZ">     1</i>
   <i type="logical" name="SHIFTRED"> F  </i>
   <i type="logical" name="ODDONLY"> F  </i>
   <i type="logical" name="EVENONLY"> F  </i>
   <i type="int" name="LMAXFOCK">     0</i>
   <i type="int" name="NMAXFOCKAE">     0</i>
   <i type="logical" name="LFOCKAEDFT"> F  </i>
   <i name="HFSCREEN">      0.00000000</i>
   <i name="HFSCREENC">      0.00000000</i>
   <i type="int" name="NBANDSGWLOW">     0</i>
  </separator>
  <separator name="vdW DFT" >
   <i type="logical" name="LUSE_VDW"> F  </i>
   <i type="int" name="IVDW_NL">    -1</i>
   <i type="logical" name="LSPIN_VDW"> F  </i>
   <i name="ZAB_VDW">     -0.84910000</i>
   <i name="GAMMA_VDW">      1.39626340</i>
   <i name="ALPHA_VDW">      0.00000000</i>
   <i name="PARAM1">      0.12340000</i>
   <i name="PARAM2">      1.00000000</i>
   <i name="BPARAM">      6.30000000</i>
   <i name="CPARAM">      0.00930000</i>
  </separator>
  <separator name="model GW" >
   <i type="int" name="MODEL_GW">     0</i>
   <i name="MODEL_EPS0">     11.02904462</i>
   <i name="MODEL_ALPHA">      1.00000000</i>
  </separator>
  <separator name="linear response parameters" >
   <i type="logical" name="LEPSILON"> F  </i>
   <i type="logical" name="LRPA"> F  </i>
   <i type="logical" name="LNABLA"> F  </i>
   <i type="logical" name="LVEL"> F  </i>
   <i name="CSHIFT">      0.10000000</i>
   <i name="OMEGAMAX">     -1.00000000</i>
   <i name="DEG_THRESHOLD">      0.00200000</i>
   <i name="RTIME">     -0.10000000</i>
   <i name="WPLASMAI">      0.00000000</i>
   <v name="DFIELD">      0.00000000      0.00000000      0.00000000</v>
   <v name="WPLASMA">      0.00000000      0.00000000      0.00000000      0.00000000      0.00000000      0.00000000      0.00000000      0.00000000      0.00000000</v>
  </separator>
  <separator name="orbital magnetization" >
   <i type="logical" name="NUCIND"> F  </i>
   <v name="MAGPOS">      0.00000000      0.00000000      0.00000000</v>
   <i type="logical" name="LNICSALL"> T  </i>
   <i type="logical" name="ORBITALMAG"> F  </i>
   <i type="logical" name="LMAGBLOCH"> F  </i>
   <i type="logical" name="LCHIMAG"> F  </i>
   <i type="logical" name="LGAUGE"> T  </i>
   <i type="int" name="MAGATOM">     0</i>
   <v name="MAGDIPOL">      0.00000000      0.00000000      0.00000000</v>
   <v name="AVECCONST">      0.00000000      0.00000000      0.00000000</v>
  </separator>
  <separator name="response functions" >
   <i type="logical" name="LALL_IN_ONE"> F  </i>
   <i type="int" name="IALL_IN_ONE">    -1</i>
   <i type="int" name="NBANDS_WAVE">    -1</i>
   <i type="logical" name="LFINITE_TEMPERATURE"> F  </i>
   <i type="logical" name="LADDER"> F  </i>
   <i type="logical" name="LRPAFORCE"> F  </i>
   <i type="logical" name="LFXC"> F  </i>
   <i type="logical" name="LHARTREE"> T  </i>
   <i type="int" name="IBSE">     0</i>
   <v type="int" name="KPOINT">    -1     0     0     0</v>
   <i type="logical" name="LTCTC"> F  </i>
   <i type="logical" name="LTCTE"> F  </i>
   <i type="logical" name="LTETE"> F  </i>
   <i type="logical" name="LTRIPLET"> F  </i>
   <i type="logical" name="LFXCEPS"> F  </i>
   <i type="logical" name="LFXHEG"> F  </i>
   <i type="int" name="NATURALO">     2</i>
   <i type="logical" name="LHOLEGF"> F  </i>
   <i type="logical" name="L2ORDER"> F  </i>
   <i type="logical" name="LDMP1"> F  </i>
   <i type="logical" name="LMP2LT"> F  </i>
   <i type="logical" name="LSMP2LT"> F  </i>
   <i type="logical" name="LGWLF"> F  </i>
   <i name="ENCUTGW">     -1.60000002</i>
   <i name="ENCUTGWSOFT">     -1.60000002</i>
   <i name="ENCUTLF">     -1.00000000</i>
   <i type="logical" name="ESF_SPLINES"> F  </i>
   <i name="ESF_CONV">      0.01000000</i>
   <i type="int" name="ESF_NINTER">    15</i>
   <i type="int" name="LMAXMP2">    -1</i>
   <i name="SCISSOR">      0.00000000</i>
   <i type="int" name="NOMEGA">     0</i>
   <i type="int" name="NOMEGAR">     0</i>
   <i type="int" name="NBANDSGW">    -1</i>
   <i type="int" name="NBANDSO">    -1</i>
   <i type="int" name="NBANDSV">    -1</i>
   <i type="int" name="NELMGW">     1</i>
   <i type="int" name="NELMHF">     1</i>
   <i type="int" name="DIM">     3</i>
   <i type="int" name="IESPILON">     4</i>
   <i type="int" name="ANTIRES">     0</i>
   <i name="OMEGAMAX">    -30.00000000</i>
   <i name="OMEGAMIN">    -30.00000000</i>
   <i name="OMEGATL">   -200.00000000</i>
   <i type="int" name="OMEGAGRID">     0</i>
   <i name="CSHIFT">     -0.10000000</i>
   <i type="logical" name="LSELFENERGY"> F  </i>
   <i type="logical" name="LSPECTRAL"> F  </i>
   <i type="logical" name="LSPECTRALGW"> F  </i>
   <i type="logical" name="LSINGLES"> F  </i>
   <i type="logical" name="LFERMIGW"> F  </i>
   <i type="logical" name="ODDONLYGW"> F  </i>
   <i type="logical" name="EVENONLYGW"> F  </i>
   <i type="int" name="NKREDLFX">     1</i>
   <i type="int" name="NKREDLFY">     1</i>
   <i type="int" name="NKREDLFZ">     1</i>
   <i type="int" name="MAXMEM">  2800</i>
   <i type="int" name="TELESCOPE">     0</i>
   <i type="int" name="NTAUPAR">    -1</i>
   <i type="int" name="NOMEGAPAR">    -1</i>
   <i name="DAMP_NEWTON">      0.80000001</i>
   <i name="LAMBDA">      1.00000000</i>
  </separator>
  <separator name="External order field" >
   <i name="OFIELD_KAPPA">      0.00000000</i>
   <v name="OFIELD_K">      0.00000000      0.00000000      0.00000000</v>
   <i name="OFIELD_Q6_NEAR">      0.00000000</i>
   <i name="OFIELD_Q6_FAR">      0.00000000</i>
   <i name="OFIELD_A">      0.00000000</i>
  </separator>
  <separator name="optional k-points parameters" >
   <i type="int" name="KPOINTS_OPT_MODE">     1</i>
   <i type="logical" name="LKPOINTS_OPT"> F  </i>
  </separator>
 </parameters>
 <atominfo>
  <atoms>      64 </atoms>
  <types>       1 </types>
  <array name="atoms" >
   <dimension dim="1">ion</dimension>
   <field type="string">element</field>
   <field type="int">atomtype</field>
   <set>
    <rc><c>Si</c><c>   1</c></rc>
    <rc><c>Si</c><c>   1</c></rc>
    <rc><c>Si</c><c>   1</c></rc>
    <rc><c>Si</c><c>   1</c></rc>
    <rc><c>Si</c><c>   1</c></rc>
    <rc><c>Si</c><c>   1</c></rc>
    <rc><c>Si</c><c>   1</c></rc>
    <rc><c>Si</c><c>   1</c></rc>
    <rc><c>Si</c><c>   1</c></rc>
    <rc><c>Si</c><c>   1</c></rc>
    <rc><c>Si</c><c>   1</c></rc>
    <rc><c>Si</c><c>   1</c></rc>
    <rc><c>Si</c><c>   1</c></rc>
    <rc><c>Si</c><c>   1</c></rc>
    <rc><c>Si</c><c>   1</c></rc>
    <rc><c>Si</c><c>   1</c></rc>
    <rc><c>Si</c><c>   1</c></rc>
    <rc><c>Si</c><c>   1</c></rc>
    <rc><c>Si</c><c>   1</c></rc>
    <rc><c>Si</c><c>   1</c></rc>
    <rc><c>Si</c><c>   1</c></rc>
    <rc><c>Si</c><c>   1</c></rc>
    <rc><c>Si</c><c>   1</c></rc>
    <rc><c>Si</c><c>   1</c></rc>
    <rc><c>Si</c><c>   1</c></rc>
    <rc><c>Si</c><c>   1</c></rc>
    <rc><c>Si</c><c>   1</c></rc>
    <rc><c>Si</c><c>   1</c></rc>
    <rc><c>Si</c><c>   1</c></rc>
    <rc><c>Si</c><c>   1</c></rc>
    <rc><c>Si</c><c>   1</c></rc>
    <rc><c>Si</c><c>   1</c></rc>
    <rc><c>Si</c><c>   1</c></rc>
    <rc><c>Si</c><c>   1</c></rc>
    <rc><c>Si</c><c>   1</c></rc>
    <rc><c>Si</c><c>   1</c></rc>
    <rc><c>Si</c><c>   1</c></rc>
    <rc><c>Si</c><c>   1</c></rc>
    <rc><c>Si</c><c>   1</c></rc>
    <rc><c>Si</c><c>   1</c></rc>
    <rc><c>Si</c><c>   1</c></rc>
    <rc><c>Si</c><c>   1</c></rc>
    <rc><c>Si</c><c>   1</c></rc>
    <rc><c>Si</c><c>   1</c></rc>
    <rc><c>Si</c><c>   1</c></rc>
    <rc><c>Si</c><c>   1</c></rc>
    <rc><c>Si</c><c>   1</c></rc>
    <rc><c>Si</c><c>   1</c></rc>
    <rc><c>Si</c><c>   1</c></rc>
    <rc><c>Si</c><c>   1</c></rc>
    <rc><c>Si</c><c>   1</c></rc>
    <rc><c>Si</c><c>   1</c></rc>
    <rc><c>Si</c><c>   1</c></rc>
    <rc><c>Si</c><c>   1</c></rc>
    <rc><c>Si</c><c>   1</c></rc>
    <rc><c>Si</c><c>   1</c></rc>
    <rc><c>Si</c><c>   1</c></rc>
    <rc><c>Si</c><c>   1</c></rc>
    <rc><c>Si</c><c>   1</c></rc>
    <rc><c>Si</c><c>   1</c></rc>
    <rc><c>Si</c><c>   1</c></rc>
    <rc><c>Si</c><c>   1</c></rc>
    <rc><c>Si</c><c>   1</c></rc>
    <rc><c>Si</c><c>   1</c></rc>
   </set>
  </array>
  <array name="atomtypes" >
   <dimension dim="1">type</dimension>
   <field type="int">atomspertype</field>
   <field type="string">element</field>
   <field>mass</field>
   <field>valence</field>
   <field type="string">pseudopotential</field>
   <set>
    <rc><c>  64</c><c>Si</c><c>     28.08500000</c><c>      4.00000000</c><c>  PAW_PBE Si 05Jan2001                  </c></rc>
   </set>
  </array>
 </atominfo>
 <structure name="initialpos" >
  <crystal>
   <varray name="basis" >
    <v>      10.45092254      -0.07957601       0.00000000 </v>
    <v>      -0.07957601      10.61007357       0.00000000 </v>
    <v>       0.00000000       0.00000000      10.61007357 </v>
   </varray>
   <i name="volume">   1176.43142592 </i>
   <varray name="rec_basis" >
    <v>       0.09569080       0.00071769       0.00000000 </v>
    <v>       0.00071769       0.09425544       0.00000000 </v>
    <v>       0.00000000       0.00000000       0.09425005 </v>
   </varray>
  </crystal>
  <varray name="positions" >
   <v>       0.00000000       0.00000000       0.00000000 </v>
   <v>       0.00000000       0.00000000       0.50000000 </v>
   <v>       0.00000000       0.50000000       0.00000000 </v>
   <v>       0.00000000       0.50000000       0.50000000 </v>
   <v>       0.50000000       0.00000000       0.00000000 </v>
   <v>       0.50000000       0.00000000       0.50000000 </v>
   <v>       0.50000000       0.50000000       0.00000000 </v>
   <v>       0.50000000       0.50000000       0.50000000 </v>
   <v>       0.37500000       0.37500000       0.12500000 </v>
   <v>       0.37500000       0.37500000       0.62500000 </v>
   <v>       0.37500000       0.87500000       0.12500000 </v>
   <v>       0.37500000       0.87500000       0.62500000 </v>
   <v>       0.87500000       0.37500000       0.12500000 </v>
   <v>       0.87500000       0.37500000       0.62500000 </v>
   <v>       0.87500000       0.87500000       0.12500000 </v>
   <v>       0.87500000       0.87500000       0.62500000 </v>
   <v>       0.00000000       0.25000000       0.25000000 </v>
   <v>       0.00000000       0.25000000       0.75000000 </v>
   <v>       0.00000000       0.75000000       0.25000000 </v>
   <v>       0.00000000       0.75000000       0.75000000 </v>
   <v>       0.50000000       0.25000000       0.25000000 </v>
   <v>       0.50000000       0.25000000       0.75000000 </v>
   <v>       0.50000000       0.75000000       0.25000000 </v>
   <v>       0.50000000       0.75000000       0.75000000 </v>
   <v>       0.37500000       0.12500000       0.37500000 </v>
   <v>       0.37500000       0.12500000       0.87500000 </v>
   <v>       0.37500000       0.62500000       0.37500000 </v>
   <v>       0.37500000       0.62500000       0.87500000 </v>
   <v>       0.87500000       0.12500000       0.37500000 </v>
   <v>       0.87500000       0.12500000       0.87500000 </v>
   <v>       0.87500000       0.62500000       0.37500000 </v>
   <v>       0.87500000       0.62500000       0.87500000 </v>
   <v>       0.25000000       0.00000000       0.25000000 </v>
   <v>       0.25000000       0.00000000       0.75000000 </v>
   <v>       0.25000000       0.50000000       0.25000000 </v>
   <v>       0.25000000       0.50000000       0.75000000 </v>
   <v>       0.75000000       0.00000000       0.25000000 </v>
   <v>       0.75000000       0.00000000       0.75000000 </v>
   <v>       0.75000000       0.50000000       0.25000000 </v>
   <v>       0.75000000       0.50000000       0.75000000 </v>
   <v>       0.12500000       0.37500000       0.37500000 </v>
   <v>       0.12500000       0.37500000       0.87500000 </v>
   <v>       0.12500000       0.87500000       0.37500000 </v>
   <v>       0.12500000       0.87500000       0.87500000 </v>
   <v>       0.62500000       0.37500000       0.37500000 </v>
   <v>       0.62500000       0.37500000       0.87500000 </v>
   <v>       0.62500000       0.87500000       0.37500000 </v>
   <v>       0.62500000       0.87500000       0.87500000 </v>
   <v>       0.25000000       0.25000000       0.00000000 </v>
   <v>       0.25000000       0.25000000       0.50000000 </v>
   <v>       0.25000000       0.75000000       0.00000000 </v>
   <v>       0.25000000       0.75000000       0.50000000 </v>
   <v>       0.75000000       0.25000000       0.00000000 </v>
   <v>       0.75000000       0.25000000       0.50000000 </v>
   <v>       0.75000000       0.75000000       0.00000000 </v>
   <v>       0.75000000       0.75000000       0.50000000 </v>
   <v>       0.12500000       0.12500000       0.12500000 </v>
   <v>       0.12500000       0.12500000       0.62500000 </v>
   <v>       0.12500000       0.62500000       0.12500000 </v>
   <v>       0.12500000       0.62500000       0.62500000 </v>
   <v>       0.62500000       0.12500000       0.12500000 </v>
   <v>       0.62500000       0.12500000       0.62500000 </v>
   <v>       0.62500000       0.62500000       0.12500000 </v>
   <v>       0.62500000       0.62500000       0.62500000 </v>
  </varray>
 </structure>
 <calculation>
  <scstep>
   <time name="dav">    1.27    1.35</time>
   <time name="total">    1.46    1.55</time>
   <energy>
    <i name="alphaZ">    117.20545772 </i>
    <i name="ewald">  -7524.21441200 </i>
    <i name="hartreedc">   -312.44145831 </i>
    <i name="XCdc">   -548.37111036 </i>
    <i name="pawpsdc">   5598.62625415 </i>
    <i name="pawaedc">  -4492.17844134 </i>
    <i name="eentropy">      0.02180097 </i>
    <i name="bandstr">   1172.60791739 </i>
    <i name="atom">   6564.79586099 </i>
    <i name="e_fr_energy">    576.05186923 </i>
    <i name="e_wo_entrp">    576.03006825 </i>
    <i name="e_0_energy">    576.04460224 </i>
   </energy>
  </scstep>
  <scstep>
   <time name="dav">    1.38    1.38</time>
   <time name="total">    1.38    1.39</time>
   <energy>
    <i name="e_fr_energy">   -308.88183017 </i>
    <i name="e_wo_entrp">   -308.88822476 </i>
    <i name="e_0_energy">   -308.88396170 </i>
   </energy>
  </scstep>
  <scstep>
   <time name="dav">    1.35    1.37</time>
   <time name="total">    1.36    1.37</time>
   <energy>
    <i name="e_fr_energy">   -371.70388506 </i>
    <i name="e_wo_entrp">   -371.71180184 </i>
    <i name="e_0_energy">   -371.70652398 </i>
   </energy>
  </scstep>
  <scstep>
   <time name="dav">    1.35    1.36</time>
   <time name="total">    1.35    1.37</time>
   <energy>
    <i name="e_fr_energy">   -373.32754597 </i>
    <i name="e_wo_entrp">   -373.33585436 </i>
    <i name="e_0_energy">   -373.33031543 </i>
   </energy>
  </scstep>
  <scstep>
   <time name="dav">    1.32    1.34</time>
   <time name="total">    1.58    1.61</time>
   <energy>
    <i name="e_fr_energy">   -373.37772489 </i>
    <i name="e_wo_entrp">   -373.38602479 </i>
    <i name="e_0_energy">   -373.38049152 </i>
   </energy>
  </scstep>
  <scstep>
   <time name="diag">    0.14    0.14</time>
   <time name="diis">    0.71    0.71</time>
   <time name="orth">    0.02    0.02</time>
   <time name="total">    1.25    1.28</time>
   <energy>
    <i name="e_fr_energy">   -367.00116432 </i>
    <i name="e_wo_entrp">   -367.02648482 </i>
    <i name="e_0_energy">   -367.00960449 </i>
   </energy>
  </scstep>
  <scstep>
   <time name="diag">    0.13    0.13</time>
   <time name="diis">    0.71    0.72</time>
   <time name="orth">    0.02    0.02</time>
   <time name="total">    1.25    1.27</time>
   <energy>
    <i name="e_fr_energy">   -364.27424368 </i>
    <i name="e_wo_entrp">   -364.29261446 </i>
    <i name="e_0_energy">   -364.28036727 </i>
   </energy>
  </scstep>
  <scstep>
   <time name="diag">    0.13    0.13</time>
   <time name="diis">    0.71    0.72</time>
   <time name="orth">    0.02    0.02</time>
   <time name="total">    1.27    1.29</time>
   <energy>
    <i name="e_fr_energy">   -364.30274872 </i>
    <i name="e_wo_entrp">   -364.32626595 </i>
    <i name="e_0_energy">   -364.31058780 </i>
   </energy>
  </scstep>
  <scstep>
   <time name="diag">    0.13    0.13</time>
   <time name="diis">    0.71    0.72</time>
   <time name="orth">    0.02    0.02</time>
   <time name="total">    1.26    1.28</time>
   <energy>
    <i name="e_fr_energy">   -364.32689139 </i>
    <i name="e_wo_entrp">   -364.34901539 </i>
    <i name="e_0_energy">   -364.33426605 </i>
   </energy>
  </scstep>
  <scstep>
   <time name="diag">    0.13    0.13</time>
   <time name="diis">    0.71    0.72</time>
   <time name="orth">    0.02    0.02</time>
   <time name="total">    1.26    1.28</time>
   <energy>
    <i name="e_fr_energy">   -364.33217455 </i>
    <i name="e_wo_entrp">   -364.35413888 </i>
    <i name="e_0_energy">   -364.33949599 </i>
   </energy>
  </scstep>
  <scstep>
   <time name="diag">    0.13    0.13</time>
   <time name="diis">    0.70    0.71</time>
   <time name="orth">    0.02    0.02</time>
   <time name="total">    1.26    1.27</time>
   <energy>
    <i name="e_fr_energy">   -364.32649674 </i>
    <i name="e_wo_entrp">   -364.35005503 </i>
    <i name="e_0_energy">   -364.33434950 </i>
   </energy>
  </scstep>
  <scstep>
   <time name="diag">    0.13    0.13</time>
   <time name="diis">    0.72    0.72</time>
   <time name="orth">    0.02    0.02</time>
   <time name="total">    1.27    1.29</time>
   <energy>
    <i name="e_fr_energy">   -364.32670751 </i>
    <i name="e_wo_entrp">   -364.35028954 </i>
    <i name="e_0_energy">   -364.33456818 </i>
   </energy>
  </scstep>
  <scstep>
   <time name="diag">    0.14    0.14</time>
   <time name="diis">    0.72    0.72</time>
   <time name="orth">    0.02    0.02</time>
   <time name="total">    1.27    1.29</time>
   <energy>
    <i name="e_fr_energy">   -364.32677917 </i>
    <i name="e_wo_entrp">   -364.35036468 </i>
    <i name="e_0_energy">   -364.33464101 </i>
   </energy>
  </scstep>
  <scstep>
   <time name="diag">    0.13    0.13</time>
   <time name="diis">    0.70    0.70</time>
   <time name="orth">    0.02    0.02</time>
   <time name="total">    1.25    1.26</time>
   <energy>
    <i name="e_fr_energy">   -364.32676837 </i>
    <i name="e_wo_entrp">   -364.35035735 </i>
    <i name="e_0_energy">   -364.33463137 </i>
   </energy>
  </scstep>
  <scstep>
   <time name="diag">    0.13    0.13</time>
   <time name="diis">    0.71    0.72</time>
   <time name="orth">    0.02    0.02</time>
   <time name="total">    1.27    1.28</time>
   <energy>
    <i name="e_fr_energy">   -364.32681415 </i>
    <i name="e_wo_entrp">   -364.35045021 </i>
    <i name="e_0_energy">   -364.33469284 </i>
   </energy>
  </scstep>
  <scstep>
   <time name="diag">    0.13    0.13</time>
   <time name="diis">    0.71    0.71</time>
   <time name="orth">    0.02    0.02</time>
   <time name="total">    1.25    1.27</time>
   <energy>
    <i name="e_fr_energy">   -364.32684187 </i>
    <i name="e_wo_entrp">   -364.35049097 </i>
    <i name="e_0_energy">   -364.33472491 </i>
   </energy>
  </scstep>
  <scstep>
   <time name="diag">    0.14    0.14</time>
   <time name="diis">    0.64    0.65</time>
   <time name="orth">    0.02    0.02</time>
   <time name="total">    1.20    1.22</time>
   <energy>
    <i name="e_fr_energy">   -364.32684694 </i>
    <i name="e_wo_entrp">   -364.35050173 </i>
    <i name="e_0_energy">   -364.33473187 </i>
   </energy>
  </scstep>
  <scstep>
   <time name="diag">    0.13    0.13</time>
   <time name="diis">    0.45    0.45</time>
   <time name="orth">    0.02    0.02</time>
   <time name="total">    0.76    0.78</time>
   <energy>
    <i name="alphaZ">    117.20545772 </i>
    <i name="ewald">  -7524.21441200 </i>
    <i name="hartreedc">   -436.70511602 </i>
    <i name="XCdc">   -527.22236528 </i>
    <i name="pawpsdc">  33449.60631840 </i>
    <i name="pawaedc"> -32352.31206878 </i>
    <i name="eentropy">      0.02365971 </i>
    <i name="bandstr">    344.49581843 </i>
    <i name="atom">   6564.79586099 </i>
    <i name="e_fr_energy">   -364.32684682 </i>
    <i name="e_wo_entrp">   -364.35050653 </i>
    <i name="e_0_energy">   -364.33473339 </i>
   </energy>
  </scstep>
  <structure>
   <crystal>
    <varray name="basis" >
     <v>      10.45092254      -0.07957601       0.00000000 </v>
     <v>      -0.07957601      10.61007357       0.00000000 </v>
     <v>       0.00000000       0.00000000      10.61007357 </v>
    </varray>
    <i name="volume">   1176.43142592 </i>
    <varray name="rec_basis" >
     <v>       0.09569080       0.00071769       0.00000000 </v>
     <v>       0.00071769       0.09425544       0.00000000 </v>
     <v>       0.00000000       0.00000000       0.09425005 </v>
    </varray>
   </crystal>
   <varray name="positions" >
    <v>       0.00000000       0.00000000       0.00000000 </v>
    <v>       0.00000000       0.00000000       0.50000000 </v>
    <v>       0.00000000       0.50000000       0.00000000 </v>
    <v>       0.00000000       0.50000000       0.50000000 </v>
    <v>       0.50000000       0.00000000       0.00000000 </v>
    <v>       0.50000000       0.00000000       0.50000000 </v>
    <v>       0.50000000       0.50000000       0.00000000 </v>
    <v>       0.50000000       0.50000000       0.50000000 </v>
    <v>       0.37500000       0.37500000       0.12500000 </v>
    <v>       0.37500000       0.37500000       0.62500000 </v>
    <v>       0.37500000       0.87500000       0.12500000 </v>
    <v>       0.37500000       0.87500000       0.62500000 </v>
    <v>       0.87500000       0.37500000       0.12500000 </v>
    <v>       0.87500000       0.37500000       0.62500000 </v>
    <v>       0.87500000       0.87500000       0.12500000 </v>
    <v>       0.87500000       0.87500000       0.62500000 </v>
    <v>       0.00000000       0.25000000       0.25000000 </v>
    <v>       0.00000000       0.25000000       0.75000000 </v>
    <v>       0.00000000       0.75000000       0.25000000 </v>
    <v>       0.00000000       0.75000000       0.75000000 </v>
    <v>       0.50000000       0.25000000       0.25000000 </v>
    <v>       0.50000000       0.25000000       0.75000000 </v>
    <v>       0.50000000       0.75000000       0.25000000 </v>
    <v>       0.50000000       0.75000000       0.75000000 </v>
    <v>       0.37500000       0.12500000       0.37500000 </v>
    <v>       0.37500000       0.12500000       0.87500000 </v>
    <v>       0.37500000       0.62500000       0.37500000 </v>
    <v>       0.37500000       0.62500000       0.87500000 </v>
    <v>       0.87500000       0.12500000       0.37500000 </v>
    <v>       0.87500000       0.12500000       0.87500000 </v>
    <v>       0.87500000       0.62500000       0.37500000 </v>
    <v>       0.87500000       0.62500000       0.87500000 </v>
    <v>       0.25000000       0.00000000       0.25000000 </v>
    <v>       0.25000000       0.00000000       0.75000000 </v>
    <v>       0.25000000       0.50000000       0.25000000 </v>
    <v>       0.25000000       0.50000000       0.75000000 </v>
    <v>       0.75000000       0.00000000       0.25000000 </v>
    <v>       0.75000000       0.00000000       0.75000000 </v>
    <v>       0.75000000       0.50000000       0.25000000 </v>
    <v>       0.75000000       0.50000000       0.75000000 </v>
    <v>       0.12500000       0.37500000       0.37500000 </v>
    <v>       0.12500000       0.37500000       0.87500000 </v>
    <v>       0.12500000       0.87500000       0.37500000 </v>
    <v>       0.12500000       0.87500000       0.87500000 </v>
    <v>       0.62500000       0.37500000       0.37500000 </v>
    <v>       0.62500000       0.37500000       0.87500000 </v>
    <v>       0.62500000       0.87500000       0.37500000 </v>
    <v>       0.62500000       0.87500000       0.87500000 </v>
    <v>       0.25000000       0.25000000       0.00000000 </v>
    <v>       0.25000000       0.25000000       0.50000000 </v>
    <v>       0.25000000       0.75000000       0.00000000 </v>
    <v>       0.25000000       0.75000000       0.50000000 </v>
    <v>       0.75000000       0.25000000       0.00000000 </v>
    <v>       0.75000000       0.25000000       0.50000000 </v>
    <v>       0.75000000       0.75000000       0.00000000 </v>
    <v>       0.75000000       0.75000000       0.50000000 </v>
    <v>       0.12500000       0.12500000       0.12500000 </v>
    <v>       0.12500000       0.12500000       0.62500000 </v>
    <v>       0.12500000       0.62500000       0.12500000 </v>
    <v>       0.12500000       0.62500000       0.62500000 </v>
    <v>       0.62500000       0.12500000       0.12500000 </v>
    <v>       0.62500000       0.12500000       0.62500000 </v>
    <v>       0.62500000       0.62500000       0.12500000 </v>
    <v>       0.62500000       0.62500000       0.62500000 </v>
   </varray>
  </structure>
  <varray name="forces" >
   <v>       0.00000000      -0.00000000      -0.21532851 </v>
   <v>       0.00000000      -0.00000000      -0.21532851 </v>
   <v>       0.00000000      -0.00000000      -0.21532851 </v>
   <v>       0.00000000      -0.00000000      -0.21532851 </v>
   <v>      -0.00000000       0.00000000      -0.21532851 </v>
   <v>      -0.00000000       0.00000000      -0.21532851 </v>
   <v>       0.00000000       0.00000000      -0.21532851 </v>
   <v>      -0.00000000       0.00000000      -0.21532851 </v>
   <v>      -0.00000000       0.00000000       0.21532851 </v>
   <v>      -0.00000000       0.00000000       0.21532851 </v>
   <v>      -0.00000000      -0.00000000       0.21532851 </v>
   <v>       0.00000000      -0.00000000       0.21532851 </v>
   <v>      -0.00000000      -0.00000000       0.21532851 </v>
   <v>      -0.00000000       0.00000000       0.21532851 </v>
   <v>       0.00000000      -0.00000000       0.21532851 </v>
   <v>       0.00000000      -0.00000000       0.21532851 </v>
   <v>       0.00000000      -0.00000000      -0.21532851 </v>
   <v>      -0.00000000      -0.00000000      -0.21532851 </v>
   <v>       0.00000000       0.00000000      -0.21532851 </v>
   <v>       0.00000000       0.00000000      -0.21532851 </v>
   <v>      -0.00000000      -0.00000000      -0.21532851 </v>
   <v>      -0.00000000       0.00000000      -0.21532851 </v>
   <v>      -0.00000000       0.00000000      -0.21532851 </v>
   <v>      -0.00000000      -0.00000000      -0.21532851 </v>
   <v>       0.00000000      -0.00000000       0.21532851 </v>
   <v>      -0.00000000      -0.00000000       0.21532851 </v>
   <v>       0.00000000       0.00000000       0.21532851 </v>
   <v>       0.00000000       0.00000000       0.21532851 </v>
   <v>      -0.00000000      -0.00000000       0.21532851 </v>
   <v>      -0.00000000      -0.00000000       0.21532851 </v>
   <v>       0.00000000       0.00000000       0.21532851 </v>
   <v>       0.00000000       0.00000000       0.21532851 </v>
   <v>       0.00000000       0.00000000      -0.21532851 </v>
   <v>       0.00000000       0.00000000      -0.21532851 </v>
   <v>      -0.00000000      -0.00000000      -0.21532851 </v>
   <v>      -0.00000000      -0.00000000      -0.21532851 </v>
   <v>      -0.00000000       0.00000000      -0.21532851 </v>
   <v>      -0.00000000      -0.00000000      -0.21532851 </v>
   <v>       0.00000000      -0.00000000      -0.21532851 </v>
   <v>       0.00000000      -0.00000000      -0.21532851 </v>
   <v>      -0.00000000       0.00000000       0.21532851 </v>
   <v>      -0.00000000      -0.00000000       0.21532851 </v>
   <v>       0.00000000      -0.00000000       0.21532851 </v>
   <v>      -0.00000000      -0.00000000       0.21532851 </v>
   <v>      -0.00000000       0.00000000       0.21532851 </v>
   <v>      -0.00000000       0.00000000       0.21532851 </v>
   <v>       0.00000000       0.00000000       0.21532851 </v>
   <v>       0.00000000      -0.00000000       0.21532851 </v>
   <v>      -0.00000000      -0.00000000      -0.21532851 </v>
   <v>      -0.00000000       0.00000000      -0.21532851 </v>
   <v>      -0.00000000       0.00000000      -0.21532851 </v>
   <v>       0.00000000      -0.00000000      -0.21532851 </v>
   <v>       0.00000000       0.00000000      -0.21532851 </v>
   <v>      -0.00000000      -0.00000000      -0.21532851 </v>
   <v>      -0.00000000      -0.00000000      -0.21532851 </v>
   <v>      -0.00000000       0.00000000      -0.21532851 </v>
   <v>      -0.00000000      -0.00000000       0.21532851 </v>
   <v>      -0.00000000      -0.00000000       0.21532851 </v>
   <v>       0.00000000       0.00000000       0.21532851 </v>
   <v>       0.00000000       0.00000000       0.21532851 </v>
   <v>      -0.00000000      -0.00000000       0.21532851 </v>
   <v>       0.00000000      -0.00000000       0.21532851 </v>
   <v>       0.00000000       0.00000000       0.21532851 </v>
   <v>       0.00000000       0.00000000       0.21532851 </v>
  </varray>
  <varray name="stress" >
   <v>     107.62562891      19.77913575       0.00000000 </v>
   <v>      19.77913589      96.00012729       0.00000000 </v>
   <v>       0.00000000       0.00000000      95.88294936 </v>
  </varray>
  <energy>
   <i name="e_fr_energy">   -364.32684682 </i>
   <i name="e_wo_entrp">   -364.35050653 </i>
   <i name="e_0_energy">   -364.33473339 </i>
  </energy>
  <time name="totalsc">   26.70   27.14</time>
 </calculation>
 <calculation>
  <scstep>
   <time name="dav">    1.27    1.27</time>
   <time name="total">    1.66    1.67</time>
   <energy>
    <i name="alphaZ">    117.20545772 </i>
    <i name="ewald">  -7524.86467277 </i>
    <i name="hartreedc">   -436.37453646 </i>
    <i name="XCdc">   -527.23431649 </i>
    <i name="pawpsdc">  33457.86041513 </i>
    <i name="pawaedc"> -32360.56559598 </i>
    <i name="eentropy">      0.01353207 </i>
    <i name="bandstr">    344.81009356 </i>
    <i name="atom">   6564.79586099 </i>
    <i name="e_fr_energy">   -364.35376222 </i>
    <i name="e_wo_entrp">   -364.36729429 </i>
    <i name="e_0_energy">   -364.35827291 </i>
   </energy>
  </scstep>
  <scstep>
   <time name="diag">    0.13    0.13</time>
   <time name="diis">    0.70    0.70</time>
   <time name="orth">    0.02    0.02</time>
   <time name="total">    1.24    1.26</time>
   <energy>
    <i name="e_fr_energy">   -364.36268578 </i>
    <i name="e_wo_entrp">   -364.37634045 </i>
    <i name="e_0_energy">   -364.36723734 </i>
   </energy>
  </scstep>
  <scstep>
   <time name="diag">    0.16    0.16</time>
   <time name="diis">    0.70    0.71</time>
   <time name="orth">    0.02    0.02</time>
   <time name="total">    1.28    1.31</time>
   <energy>
    <i name="e_fr_energy">   -364.36348073 </i>
    <i name="e_wo_entrp">   -364.37753957 </i>
    <i name="e_0_energy">   -364.36816701 </i>
   </energy>
  </scstep>
  <scstep>
   <time name="diag">    0.13    0.13</time>
   <time name="diis">    0.70    0.70</time>
   <time name="orth">    0.02    0.02</time>
   <time name="total">    1.24    1.27</time>
   <energy>
    <i name="e_fr_energy">   -364.36341695 </i>
    <i name="e_wo_entrp">   -364.37775152 </i>
    <i name="e_0_energy">   -364.36819514 </i>
   </energy>
  </scstep>
  <scstep>
   <time name="diag">    0.13    0.13</time>
   <time name="diis">    0.73    0.73</time>
   <time name="orth">    0.02    0.02</time>
   <time name="total">    1.27    1.29</time>
   <energy>
    <i name="e_fr_energy">   -364.36343441 </i>
    <i name="e_wo_entrp">   -364.37786316 </i>
    <i name="e_0_energy">   -364.36824399 </i>
   </energy>
  </scstep>
  <scstep>
   <time name="diag">    0.13    0.13</time>
   <time name="diis">    0.73    0.74</time>
   <time name="orth">    0.02    0.02</time>
   <time name="total">    1.29    1.30</time>
   <energy>
    <i name="e_fr_energy">   -364.36344197 </i>
    <i name="e_wo_entrp">   -364.37786532 </i>
    <i name="e_0_energy">   -364.36824975 </i>
   </energy>
  </scstep>
  <scstep>
   <time name="diag">    0.13    0.13</time>
   <time name="diis">    0.62    0.62</time>
   <time name="orth">    0.02    0.02</time>
   <time name="total">    1.16    1.18</time>
   <energy>
    <i name="e_fr_energy">   -364.36344309 </i>
    <i name="e_wo_entrp">   -364.37786352 </i>
    <i name="e_0_energy">   -364.36824990 </i>
   </energy>
  </scstep>
  <scstep>
   <time name="diag">    0.13    0.13</time>
   <time name="diis">    0.48    0.48</time>
   <time name="orth">    0.02    0.02</time>
   <time name="total">    0.78    0.80</time>
   <energy>
    <i name="alphaZ">    117.20545772 </i>
    <i name="ewald">  -7524.86467277 </i>
    <i name="hartreedc">   -436.11944714 </i>
    <i name="XCdc">   -527.27028291 </i>
    <i name="pawpsdc">  33422.16787747 </i>
    <i name="pawaedc"> -32324.85375215 </i>
    <i name="eentropy">      0.01442132 </i>
    <i name="bandstr">    344.56109426 </i>
    <i name="atom">   6564.79586099 </i>
    <i name="e_fr_energy">   -364.36344320 </i>
    <i name="e_wo_entrp">   -364.37786452 </i>
    <i name="e_0_energy">   -364.36825030 </i>
   </energy>
  </scstep>
  <structure>
   <crystal>
    <varray name="basis" >
     <v>      10.45092254      -0.07957601       0.00000000 </v>
     <v>      -0.07957601      10.61007357       0.00000000 </v>
     <v>       0.00000000       0.00000000      10.61007357 </v>
    </varray>
    <i name="volume">   1176.43142592 </i>
    <varray name="rec_basis" >
     <v>       0.09569080       0.00071769       0.00000000 </v>
     <v>       0.00071769       0.09425544       0.00000000 </v>
     <v>       0.00000000       0.00000000       0.09425005 </v>
    </varray>
   </crystal>
   <varray name="positions" >
    <v>       0.00000000       1.00000000       0.99902093 </v>
    <v>       0.00000000       1.00000000       0.49902093 </v>
    <v>       0.00000000       0.50000000       0.99902093 </v>
    <v>       0.00000000       0.50000000       0.49902093 </v>
    <v>       0.50000000       0.00000000       0.99902093 </v>
    <v>       0.50000000       0.00000000       0.49902093 </v>
    <v>       0.50000000       0.50000000       0.99902093 </v>
    <v>       0.50000000       0.50000000       0.49902093 </v>
    <v>       0.37500000       0.37500000       0.12597907 </v>
    <v>       0.37500000       0.37500000       0.62597907 </v>
    <v>       0.37500000       0.87500000       0.12597907 </v>
    <v>       0.37500000       0.87500000       0.62597907 </v>
    <v>       0.87500000       0.37500000       0.12597907 </v>
    <v>       0.87500000       0.37500000       0.62597907 </v>
    <v>       0.87500000       0.87500000       0.12597907 </v>
    <v>       0.87500000       0.87500000       0.62597907 </v>
    <v>       0.00000000       0.25000000       0.24902093 </v>
    <v>       1.00000000       0.25000000       0.74902093 </v>
    <v>       0.00000000       0.75000000       0.24902093 </v>
    <v>       0.00000000       0.75000000       0.74902093 </v>
    <v>       0.50000000       0.25000000       0.24902093 </v>
    <v>       0.50000000       0.25000000       0.74902093 </v>
    <v>       0.50000000       0.75000000       0.24902093 </v>
    <v>       0.50000000       0.75000000       0.74902093 </v>
    <v>       0.37500000       0.12500000       0.37597907 </v>
    <v>       0.37500000       0.12500000       0.87597907 </v>
    <v>       0.37500000       0.62500000       0.37597907 </v>
    <v>       0.37500000       0.62500000       0.87597907 </v>
    <v>       0.87500000       0.12500000       0.37597907 </v>
    <v>       0.87500000       0.12500000       0.87597907 </v>
    <v>       0.87500000       0.62500000       0.37597907 </v>
    <v>       0.87500000       0.62500000       0.87597907 </v>
    <v>       0.25000000       0.00000000       0.24902093 </v>
    <v>       0.25000000       0.00000000       0.74902093 </v>
    <v>       0.25000000       0.50000000       0.24902093 </v>
    <v>       0.25000000       0.50000000       0.74902093 </v>
    <v>       0.75000000       0.00000000       0.24902093 </v>
    <v>       0.75000000       1.00000000       0.74902093 </v>
    <v>       0.75000000       0.50000000       0.24902093 </v>
    <v>       0.75000000       0.50000000       0.74902093 </v>
    <v>       0.12500000       0.37500000       0.37597907 </v>
    <v>       0.12500000       0.37500000       0.87597907 </v>
    <v>       0.12500000       0.87500000       0.37597907 </v>
    <v>       0.12500000       0.87500000       0.87597907 </v>
    <v>       0.62500000       0.37500000       0.37597907 </v>
    <v>       0.62500000       0.37500000       0.87597907 </v>
    <v>       0.62500000       0.87500000       0.37597907 </v>
    <v>       0.62500000       0.87500000       0.87597907 </v>
    <v>       0.25000000       0.25000000       0.99902093 </v>
    <v>       0.25000000       0.25000000       0.49902093 </v>
    <v>       0.25000000       0.75000000       0.99902093 </v>
    <v>       0.25000000       0.75000000       0.49902093 </v>
    <v>       0.75000000       0.25000000       0.99902093 </v>
    <v>       0.75000000       0.25000000       0.49902093 </v>
    <v>       0.75000000       0.75000000       0.99902093 </v>
    <v>       0.75000000       0.75000000       0.49902093 </v>
    <v>       0.12500000       0.12500000       0.12597907 </v>
    <v>       0.12500000       0.12500000       0.62597907 </v>
    <v>       0.12500000       0.62500000       0.12597907 </v>
    <v>       0.12500000       0.62500000       0.62597907 </v>
    <v>       0.62500000       0.12500000       0.12597907 </v>
    <v>       0.62500000       0.12500000       0.62597907 </v>
    <v>       0.62500000       0.62500000       0.12597907 </v>
    <v>       0.62500000       0.62500000       0.62597907 </v>
   </varray>
  </structure>
  <varray name="forces" >
   <v>       0.00000000       0.00000000       0.10483284 </v>
   <v>      -0.00000000       0.00000000       0.10483284 </v>
   <v>      -0.00000000       0.00000000       0.10483284 </v>
   <v>       0.00000000      -0.00000000       0.10483284 </v>
   <v>      -0.00000000      -0.00000000       0.10483284 </v>
   <v>      -0.00000000       0.00000000       0.10483284 </v>
   <v>      -0.00000000      -0.00000000       0.10483284 </v>
   <v>       0.00000000       0.00000000       0.10483284 </v>
   <v>      -0.00000000       0.00000000      -0.10483284 </v>
   <v>       0.00000000      -0.00000000      -0.10483284 </v>
   <v>       0.00000000       0.00000000      -0.10483284 </v>
   <v>       0.00000000      -0.00000000      -0.10483284 </v>
   <v>       0.00000000      -0.00000000      -0.10483284 </v>
   <v>       0.00000000      -0.00000000      -0.10483284 </v>
   <v>       0.00000000       0.00000000      -0.10483284 </v>
   <v>      -0.00000000      -0.00000000      -0.10483284 </v>
   <v>       0.00000000      -0.00000000       0.10483284 </v>
   <v>       0.00000000      -0.00000000       0.10483284 </v>
   <v>       0.00000000      -0.00000000       0.10483284 </v>
   <v>       0.00000000      -0.00000000       0.10483284 </v>
   <v>       0.00000000       0.00000000       0.10483284 </v>
   <v>       0.00000000      -0.00000000       0.10483284 </v>
   <v>      -0.00000000      -0.00000000       0.10483284 </v>
   <v>      -0.00000000       0.00000000       0.10483284 </v>
   <v>       0.00000000       0.00000000      -0.10483284 </v>
   <v>       0.00000000      -0.00000000      -0.10483284 </v>
   <v>      -0.00000000       0.00000000      -0.10483284 </v>
   <v>      -0.00000000       0.00000000      -0.10483284 </v>
   <v>       0.00000000      -0.00000000      -0.10483284 </v>
   <v>       0.00000000       0.00000000      -0.10483284 </v>
   <v>      -0.00000000       0.00000000      -0.10483284 </v>
   <v>      -0.00000000       0.00000000      -0.10483284 </v>
   <v>      -0.00000000      -0.00000000       0.10483284 </v>
   <v>       0.00000000       0.00000000       0.10483284 </v>
   <v>      -0.00000000       0.00000000       0.10483284 </v>
   <v>      -0.00000000      -0.00000000       0.10483284 </v>
   <v>      -0.00000000       0.00000000       0.10483284 </v>
   <v>      -0.00000000       0.00000000       0.10483284 </v>
   <v>      -0.00000000       0.00000000       0.10483284 </v>
   <v>       0.00000000      -0.00000000       0.10483284 </v>
   <v>       0.00000000      -0.00000000      -0.10483284 </v>
   <v>       0.00000000       0.00000000      -0.10483284 </v>
   <v>      -0.00000000      -0.00000000      -0.10483284 </v>
   <v>      -0.00000000      -0.00000000      -0.10483284 </v>
   <v>      -0.00000000      -0.00000000      -0.10483284 </v>
   <v>       0.00000000      -0.00000000      -0.10483284 </v>
   <v>       0.00000000      -0.00000000      -0.10483284 </v>
   <v>       0.00000000      -0.00000000      -0.10483284 </v>
   <v>      -0.00000000      -0.00000000       0.10483284 </v>
   <v>       0.00000000       0.00000000       0.10483284 </v>
   <v>       0.00000000      -0.00000000       0.10483284 </v>
   <v>      -0.00000000      -0.00000000       0.10483284 </v>
   <v>      -0.00000000       0.00000000       0.10483284 </v>
   <v>       0.00000000      -0.00000000       0.10483284 </v>
   <v>       0.00000000      -0.00000000       0.10483284 </v>
   <v>      -0.00000000      -0.00000000       0.10483284 </v>
   <v>       0.00000000      -0.00000000      -0.10483284 </v>
   <v>       0.00000000      -0.00000000      -0.10483284 </v>
   <v>      -0.00000000       0.00000000      -0.10483284 </v>
   <v>      -0.00000000       0.00000000      -0.10483284 </v>
   <v>      -0.00000000      -0.00000000      -0.10483284 </v>
   <v>      -0.00000000       0.00000000      -0.10483284 </v>
   <v>      -0.00000000       0.00000000      -0.10483284 </v>
   <v>      -0.00000000       0.00000000      -0.10483284 </v>
  </varray>
  <varray name="stress" >
   <v>     106.81267826       6.72437058       0.00000000 </v>
   <v>       6.72437070      95.58876005       0.00000000 </v>
   <v>       0.00000000       0.00000000      95.17826098 </v>
  </varray>
  <energy>
   <i name="e_fr_energy">   -364.36344320 </i>
   <i name="e_wo_entrp">   -364.37786452 </i>
   <i name="e_0_energy">   -364.36825030 </i>
  </energy>
  <time name="totalsc">   13.62   13.79</time>
 </calculation>
 <calculation>
  <scstep>
   <time name="dav">    1.26    1.26</time>
   <time name="total">    1.65    1.65</time>
   <energy>
    <i name="alphaZ">    117.20545772 </i>
    <i name="ewald">  -7524.69254437 </i>
    <i name="hartreedc">   -436.22299351 </i>
    <i name="XCdc">   -527.26535862 </i>
    <i name="pawpsdc">  33421.67569492 </i>
    <i name="pawaedc"> -32324.36155744 </i>
    <i name="eentropy">      0.01837163 </i>
    <i name="bandstr">    344.47319076 </i>
    <i name="atom">   6564.79586099 </i>
    <i name="e_fr_energy">   -364.37387790 </i>
    <i name="e_wo_entrp">   -364.39224953 </i>
    <i name="e_0_energy">   -364.38000178 </i>
   </energy>
  </scstep>
  <scstep>
   <time name="diag">    0.13    0.13</time>
   <time name="diis">    0.69    0.70</time>
   <time name="orth">    0.02    0.02</time>
   <time name="total">    1.23    1.25</time>
   <energy>
    <i name="e_fr_energy">   -364.37481113 </i>
    <i name="e_wo_entrp">   -364.39313225 </i>
    <i name="e_0_energy">   -364.38091817 </i>
   </energy>
  </scstep>
  <scstep>
   <time name="diag">    0.13    0.13</time>
   <time name="diis">    0.71    0.71</time>
   <time name="orth">    0.02    0.02</time>
   <time name="total">    1.25    1.27</time>
   <energy>
    <i name="e_fr_energy">   -364.37488990 </i>
    <i name="e_wo_entrp">   -364.39306913 </i>
    <i name="e_0_energy">   -364.38094964 </i>
   </energy>
  </scstep>
  <scstep>
   <time name="diag">    0.16    0.16</time>
   <time name="diis">    0.70    0.71</time>
   <time name="orth">    0.02    0.02</time>
   <time name="total">    1.27    1.30</time>
   <energy>
    <i name="e_fr_energy">   -364.37488416 </i>
    <i name="e_wo_entrp">   -364.39297355 </i>
    <i name="e_0_energy">   -364.38091396 </i>
   </energy>
  </scstep>
  <scstep>
   <time name="diag">    0.13    0.13</time>
   <time name="diis">    0.71    0.72</time>
   <time name="orth">    0.02    0.02</time>
   <time name="total">    1.26    1.29</time>
   <energy>
    <i name="e_fr_energy">   -364.37488593 </i>
    <i name="e_wo_entrp">   -364.39294537 </i>
    <i name="e_0_energy">   -364.38090575 </i>
   </energy>
  </scstep>
  <scstep>
   <time name="diag">    0.13    0.13</time>
   <time name="diis">    0.58    0.58</time>
   <time name="orth">    0.02    0.02</time>
   <time name="total">    1.12    1.15</time>
   <energy>
    <i name="e_fr_energy">   -364.37488659 </i>
    <i name="e_wo_entrp">   -364.39294718 </i>
    <i name="e_0_energy">   -364.38090679 </i>
   </energy>
  </scstep>
  <scstep>
   <time name="diag">    0.13    0.13</time>
   <time name="diis">    0.47    0.48</time>
   <time name="orth">    0.02    0.02</time>
   <time name="total">    1.00    1.04</time>
   <energy>
    <i name="e_fr_energy">   -364.37488674 </i>
    <i name="e_wo_entrp">   -364.39294882 </i>
    <i name="e_0_energy">   -364.38090743 </i>
   </energy>
  </scstep>
  <scstep>
   <time name="diag">    0.13    0.13</time>
   <time name="diis">    0.43    0.43</time>
   <time name="orth">    0.02    0.02</time>
   <time name="total">    0.74    0.75</time>
   <energy>
    <i name="alphaZ">    117.20545772 </i>
    <i name="ewald">  -7524.69254437 </i>
    <i name="hartreedc">   -436.33249037 </i>
    <i name="XCdc">   -527.25118309 </i>
    <i name="pawpsdc">  33434.26798050 </i>
    <i name="pawaedc"> -32336.95993842 </i>
    <i name="eentropy">      0.01806177 </i>
    <i name="bandstr">    344.57390848 </i>
    <i name="atom">   6564.79586099 </i>
    <i name="e_fr_energy">   -364.37488679 </i>
    <i name="e_wo_entrp">   -364.39294856 </i>
    <i name="e_0_energy">   -364.38090738 </i>
   </energy>
  </scstep>
  <structure>
   <crystal>
    <varray name="basis" >
     <v>      10.45092254      -0.07957601       0.00000000 </v>
     <v>      -0.07957601      10.61007357       0.00000000 </v>
     <v>       0.00000000       0.00000000      10.61007357 </v>
    </varray>
    <i name="volume">   1176.43142592 </i>
    <varray name="rec_basis" >
     <v>       0.09569080       0.00071769       0.00000000 </v>
     <v>       0.00071769       0.09425544       0.00000000 </v>
     <v>       0.00000000       0.00000000       0.09425005 </v>
    </varray>
   </crystal>
   <varray name="positions" >
    <v>       0.00000000       0.00000000       0.99934151 </v>
    <v>       0.00000000       0.00000000       0.49934151 </v>
    <v>       0.00000000       0.50000000       0.99934151 </v>
    <v>       0.00000000       0.50000000       0.49934151 </v>
    <v>       0.50000000       0.00000000       0.99934151 </v>
    <v>       0.50000000       0.00000000       0.49934151 </v>
    <v>       0.50000000       0.50000000       0.99934151 </v>
    <v>       0.50000000       0.50000000       0.49934151 </v>
    <v>       0.37500000       0.37500000       0.12565849 </v>
    <v>       0.37500000       0.37500000       0.62565849 </v>
    <v>       0.37500000       0.87500000       0.12565849 </v>
    <v>       0.37500000       0.87500000       0.62565849 </v>
    <v>       0.87500000       0.37500000       0.12565849 </v>
    <v>       0.87500000       0.37500000       0.62565849 </v>
    <v>       0.87500000       0.87500000       0.12565849 </v>
    <v>       0.87500000       0.87500000       0.62565849 </v>
    <v>       0.00000000       0.25000000       0.24934151 </v>
    <v>       0.00000000       0.25000000       0.74934151 </v>
    <v>       0.00000000       0.75000000       0.24934151 </v>
    <v>       0.00000000       0.75000000       0.74934151 </v>
    <v>       0.50000000       0.25000000       0.24934151 </v>
    <v>       0.50000000       0.25000000       0.74934151 </v>
    <v>       0.50000000       0.75000000       0.24934151 </v>
    <v>       0.50000000       0.75000000       0.74934151 </v>
    <v>       0.37500000       0.12500000       0.37565849 </v>
    <v>       0.37500000       0.12500000       0.87565849 </v>
    <v>       0.37500000       0.62500000       0.37565849 </v>
    <v>       0.37500000       0.62500000       0.87565849 </v>
    <v>       0.87500000       0.12500000       0.37565849 </v>
    <v>       0.87500000       0.12500000       0.87565849 </v>
    <v>       0.87500000       0.62500000       0.37565849 </v>
    <v>       0.87500000       0.62500000       0.87565849 </v>
    <v>       0.25000000       0.00000000       0.24934151 </v>
    <v>       0.25000000       0.00000000       0.74934151 </v>
    <v>       0.25000000       0.50000000       0.24934151 </v>
    <v>       0.25000000       0.50000000       0.74934151 </v>
    <v>       0.75000000       0.00000000       0.24934151 </v>
    <v>       0.75000000       0.00000000       0.74934151 </v>
    <v>       0.75000000       0.50000000       0.24934151 </v>
    <v>       0.75000000       0.50000000       0.74934151 </v>
    <v>       0.12500000       0.37500000       0.37565849 </v>
    <v>       0.12500000       0.37500000       0.87565849 </v>
    <v>       0.12500000       0.87500000       0.37565849 </v>
    <v>       0.12500000       0.87500000       0.87565849 </v>
    <v>       0.62500000       0.37500000       0.37565849 </v>
    <v>       0.62500000       0.37500000       0.87565849 </v>
    <v>       0.62500000       0.87500000       0.37565849 </v>
    <v>       0.62500000       0.87500000       0.87565849 </v>
    <v>       0.25000000       0.25000000       0.99934151 </v>
    <v>       0.25000000       0.25000000       0.49934151 </v>
    <v>       0.25000000       0.75000000       0.99934151 </v>
    <v>       0.25000000       0.75000000       0.49934151 </v>
    <v>       0.75000000       0.25000000       0.99934151 </v>
    <v>       0.75000000       0.25000000       0.49934151 </v>
    <v>       0.75000000       0.75000000       0.99934151 </v>
    <v>       0.75000000       0.75000000       0.49934151 </v>
    <v>       0.12500000       0.12500000       0.12565849 </v>
    <v>       0.12500000       0.12500000       0.62565849 </v>
    <v>       0.12500000       0.62500000       0.12565849 </v>
    <v>       0.12500000       0.62500000       0.62565849 </v>
    <v>       0.62500000       0.12500000       0.12565849 </v>
    <v>       0.62500000       0.12500000       0.62565849 </v>
    <v>       0.62500000       0.62500000       0.12565849 </v>
    <v>       0.62500000       0.62500000       0.62565849 </v>
   </varray>
  </structure>
  <varray name="forces" >
   <v>       0.00000000       0.00000000       0.00032596 </v>
   <v>      -0.00000000       0.00000000       0.00032596 </v>
   <v>      -0.00000000       0.00000000       0.00032596 </v>
   <v>      -0.00000000      -0.00000000       0.00032596 </v>
   <v>       0.00000000       0.00000000       0.00032596 </v>
   <v>       0.00000000       0.00000000       0.00032596 </v>
   <v>      -0.00000000      -0.00000000       0.00032596 </v>
   <v>       0.00000000       0.00000000       0.00032596 </v>
   <v>       0.00000000      -0.00000000      -0.00032596 </v>
   <v>      -0.00000000      -0.00000000      -0.00032596 </v>
   <v>      -0.00000000       0.00000000      -0.00032596 </v>
   <v>      -0.00000000      -0.00000000      -0.00032596 </v>
   <v>      -0.00000000      -0.00000000      -0.00032596 </v>
   <v>      -0.00000000      -0.00000000      -0.00032596 </v>
   <v>      -0.00000000       0.00000000      -0.00032596 </v>
   <v>       0.00000000      -0.00000000      -0.00032596 </v>
   <v>      -0.00000000      -0.00000000       0.00032596 </v>
   <v>      -0.00000000      -0.00000000       0.00032596 </v>
   <v>      -0.00000000      -0.00000000       0.00032596 </v>
   <v>       0.00000000      -0.00000000       0.00032596 </v>
   <v>      -0.00000000      -0.00000000       0.00032596 </v>
   <v>       0.00000000      -0.00000000       0.00032596 </v>
   <v>       0.00000000       0.00000000       0.00032596 </v>
   <v>       0.00000000      -0.00000000       0.00032596 </v>
   <v>       0.00000000       0.00000000      -0.00032596 </v>
   <v>      -0.00000000      -0.00000000      -0.00032596 </v>
   <v>      -0.00000000       0.00000000      -0.00032596 </v>
   <v>      -0.00000000       0.00000000      -0.00032596 </v>
   <v>      -0.00000000       0.00000000      -0.00032596 </v>
   <v>       0.00000000       0.00000000      -0.00032596 </v>
   <v>       0.00000000       0.00000000      -0.00032596 </v>
   <v>       0.00000000       0.00000000      -0.00032596 </v>
   <v>       0.00000000       0.00000000       0.00032596 </v>
   <v>       0.00000000       0.00000000       0.00032596 </v>
   <v>      -0.00000000      -0.00000000       0.00032596 </v>
   <v>      -0.00000000      -0.00000000       0.00032596 </v>
   <v>       0.00000000       0.00000000       0.00032596 </v>
   <v>       0.00000000       0.00000000       0.00032596 </v>
   <v>       0.00000000      -0.00000000       0.00032596 </v>
   <v>       0.00000000      -0.00000000       0.00032596 </v>
   <v>      -0.00000000      -0.00000000      -0.00032596 </v>
   <v>       0.00000000      -0.00000000      -0.00032596 </v>
   <v>      -0.00000000      -0.00000000      -0.00032596 </v>
   <v>      -0.00000000       0.00000000      -0.00032596 </v>
   <v>      -0.00000000      -0.00000000      -0.00032596 </v>
   <v>       0.00000000      -0.00000000      -0.00032596 </v>
   <v>       0.00000000      -0.00000000      -0.00032596 </v>
   <v>       0.00000000       0.00000000      -0.00032596 </v>
   <v>      -0.00000000      -0.00000000       0.00032596 </v>
   <v>       0.00000000      -0.00000000       0.00032596 </v>
   <v>       0.00000000       0.00000000       0.00032596 </v>
   <v>      -0.00000000      -0.00000000       0.00032596 </v>
   <v>      -0.00000000      -0.00000000       0.00032596 </v>
   <v>       0.00000000       0.00000000       0.00032596 </v>
   <v>       0.00000000       0.00000000       0.00032596 </v>
   <v>      -0.00000000      -0.00000000       0.00032596 </v>
   <v>       0.00000000      -0.00000000      -0.00032596 </v>
   <v>       0.00000000       0.00000000      -0.00032596 </v>
   <v>       0.00000000       0.00000000      -0.00032596 </v>
   <v>       0.00000000       0.00000000      -0.00032596 </v>
   <v>      -0.00000000       0.00000000      -0.00032596 </v>
   <v>      -0.00000000       0.00000000      -0.00032596 </v>
   <v>      -0.00000000       0.00000000      -0.00032596 </v>
   <v>      -0.00000000       0.00000000      -0.00032596 </v>
  </varray>
  <varray name="stress" >
   <v>     107.03748935      11.02316519       0.00000000 </v>
   <v>      11.02316524      95.63742089       0.00000000 </v>
   <v>       0.00000000       0.00000000      95.43974612 </v>
  </varray>
  <energy>
   <i name="e_fr_energy">   -364.37488679 </i>
   <i name="e_wo_entrp">   -364.39294856 </i>
   <i name="e_0_energy">   -364.38090738 </i>
  </energy>
  <time name="totalsc">   13.06   13.26</time>
  <eigenvalues>
   <array>
    <dimension dim="1">band</dimension>
    <dimension dim="2">kpoint</dimension>
    <dimension dim="3">spin</dimension>
    <field>eigene</field>
    <field>occ</field>
    <set>
     <set comment="spin 1">
      <set comment="kpoint 1">
       <r>   -5.9111    1.0000 </r>
       <r>   -4.7534    1.0000 </r>
       <r>   -4.7534    1.0000 </r>
       <r>   -4.7531    1.0000 </r>
       <r>   -4.7530    1.0000 </r>
       <r>   -4.7222    1.0000 </r>
       <r>   -4.7222    1.0000 </r>
       <r>   -3.7186    1.0000 </r>
       <r>   -3.7186    1.0000 </r>
       <r>   -3.7040    1.0000 </r>
       <r>   -3.7040    1.0000 </r>
       <r>   -3.7040    1.0000 </r>
       <r>   -3.7040    1.0000 </r>
       <r>   -3.6813    1.0000 </r>
       <r>   -3.6813    1.0000 </r>
       <r>   -3.6813    1.0000 </r>
       <r>   -3.6813    1.0000 </r>
       <r>   -3.6434    1.0000 </r>
       <r>   -3.6434    1.0000 </r>
       <r>   -3.3727    1.0000 </r>
       <r>   -3.3727    1.0000 </r>
       <r>   -3.2953    1.0000 </r>
       <r>   -3.2953    1.0000 </r>
       <r>   -1.4826    1.0000 </r>
       <r>   -1.4630    1.0000 </r>
       <r>   -1.4630    1.0000 </r>
       <r>   -1.4459    1.0000 </r>
       <r>   -1.3617    1.0000 </r>
       <r>   -1.3617    1.0000 </r>
       <r>   -1.2775    1.0000 </r>
       <r>   -1.2775    1.0000 </r>
       <r>   -1.2432    1.0000 </r>
       <r>   -1.2432    1.0000 </r>
       <r>   -1.2049    1.0000 </r>
       <r>   -1.2049    1.0000 </r>
       <r>   -1.2049    1.0000 </r>
       <r>   -1.2049    1.0000 </r>
       <r>   -1.1994    1.0000 </r>
       <r>   -1.1994    1.0000 </r>
       <r>   -1.1680    1.0000 </r>
       <r>   -1.1680    1.0000 </r>
       <r>   -0.7756    1.0000 </r>
       <r>   -0.7756    1.0000 </r>
       <r>   -0.7296    1.0000 </r>
       <r>   -0.7296    1.0000 </r>
       <r>    0.9887    1.0000 </r>
       <r>    0.9887    1.0000 </r>
       <r>    1.0060    1.0000 </r>
       <r>    1.0060    1.0000 </r>
       <r>    1.0060    1.0000 </r>
       <r>    1.0060    1.0000 </r>
       <r>    1.0253    1.0000 </r>
       <r>    1.0253    1.0000 </r>
       <r>    1.0680    1.0000 </r>
       <r>    1.0680    1.0000 </r>
       <r>    1.0680    1.0000 </r>
       <r>    1.0680    1.0000 </r>
       <r>    2.3756    1.0000 </r>
       <r>    2.3756    1.0000 </r>
       <r>    2.3859    1.0000 </r>
       <r>    2.3859    1.0000 </r>
       <r>    2.4088    1.0000 </r>
       <r>    2.4088    1.0000 </r>
       <r>    2.4088    1.0000 </r>
       <r>    2.4088    1.0000 </r>
       <r>    2.4186    1.0000 </r>
       <r>    2.4186    1.0000 </r>
       <r>    2.4322    1.0000 </r>
       <r>    2.4322    1.0000 </r>
       <r>    2.5013    1.0000 </r>
       <r>    2.5013    1.0000 </r>
       <r>    2.5185    1.0000 </r>
       <r>    2.5185    1.0000 </r>
       <r>    2.5185    1.0000 </r>
       <r>    2.5185    1.0000 </r>
       <r>    2.5303    1.0000 </r>
       <r>    2.5303    1.0000 </r>
       <r>    2.6098    1.0000 </r>
       <r>    2.6098    1.0000 </r>
       <r>    2.6098    1.0000 </r>
       <r>    2.6098    1.0000 </r>
       <r>    3.1387    1.0000 </r>
       <r>    3.1387    1.0000 </r>
       <r>    3.1412    1.0000 </r>
       <r>    3.1412    1.0000 </r>
       <r>    3.2581    1.0000 </r>
       <r>    3.2581    1.0000 </r>
       <r>    3.5031    1.0000 </r>
       <r>    3.5031    1.0000 </r>
       <r>    3.5152    1.0000 </r>
       <r>    3.6288    1.0000 </r>
       <r>    3.6288    1.0000 </r>
       <r>    3.7449    1.0000 </r>
       <r>    4.5411    1.0000 </r>
       <r>    4.5411    1.0000 </r>
       <r>    4.5537    1.0000 </r>
       <r>    4.5537    1.0000 </r>
       <r>    4.5554    1.0000 </r>
       <r>    4.5554    1.0000 </r>
       <r>    4.6341    1.0000 </r>
       <r>    4.6341    1.0000 </r>
       <r>    4.6689    1.0000 </r>
       <r>    4.6689    1.0000 </r>
       <r>    4.7641    1.0000 </r>
       <r>    4.7641    1.0000 </r>
       <r>    5.1699    1.0000 </r>
       <r>    5.1699    1.0000 </r>
       <r>    5.1700    1.0000 </r>
       <r>    5.1700    1.0000 </r>
       <r>    5.2164    1.0000 </r>
       <r>    5.2164    1.0000 </r>
       <r>    5.2979    1.0000 </r>
       <r>    5.2979    1.0000 </r>
       <r>    5.2990    1.0000 </r>
       <r>    5.2990    1.0000 </r>
       <r>    5.2990    1.0000 </r>
       <r>    5.2990    1.0000 </r>
       <r>    5.3617    1.0000 </r>
       <r>    5.3617    1.0000 </r>
       <r>    5.3855    1.0000 </r>
       <r>    5.3855    1.0000 </r>
       <r>    5.4348    1.0000 </r>
       <r>    5.4348    1.0000 </r>
       <r>    5.5631    1.0000 </r>
       <r>    5.5631    1.0000 </r>
       <r>    6.6022    1.0344 </r>
       <r>    6.6547    1.0297 </r>
       <r>    6.8220    0.6775 </r>
       <r>    7.0142    0.0252 </r>
       <r>    7.0142    0.0252 </r>
       <r>    7.0170    0.0210 </r>
       <r>    7.1412   -0.0325 </r>
       <r>    7.1412   -0.0325 </r>
       <r>    7.2669   -0.0078 </r>
       <r>    7.5557   -0.0000 </r>
       <r>    7.5557   -0.0000 </r>
       <r>    7.6761   -0.0000 </r>
       <r>    7.6761   -0.0000 </r>
       <r>    7.6804   -0.0000 </r>
       <r>    7.6804   -0.0000 </r>
       <r>    8.3716   -0.0000 </r>
       <r>    8.3716   -0.0000 </r>
       <r>    8.5232   -0.0000 </r>
       <r>    8.5232   -0.0000 </r>
       <r>    8.9855   -0.0000 </r>
       <r>    8.9855   -0.0000 </r>
       <r>    8.9855   -0.0000 </r>
       <r>    8.9855   -0.0000 </r>
       <r>    9.0470   -0.0000 </r>
       <r>    9.0471   -0.0000 </r>
       <r>    9.1333   -0.0000 </r>
       <r>    9.1333   -0.0000 </r>
       <r>    9.1333   -0.0000 </r>
       <r>    9.1333   -0.0000 </r>
       <r>    9.1418   -0.0000 </r>
       <r>    9.2215   -0.0000 </r>
       <r>    9.2215   -0.0000 </r>
       <r>    9.2424   -0.0000 </r>
       <r>    9.3231   -0.0000 </r>
       <r>    9.6490   -0.0000 </r>
       <r>    9.6601   -0.0000 </r>
       <r>    9.6823   -0.0000 </r>
      </set>
      <set comment="kpoint 2">
       <r>   -5.6112    1.0000 </r>
       <r>   -5.6112    1.0000 </r>
       <r>   -4.4971    1.0000 </r>
       <r>   -4.4971    1.0000 </r>
       <r>   -4.4778    1.0000 </r>
       <r>   -4.4778    1.0000 </r>
       <r>   -4.4778    1.0000 </r>
       <r>   -4.4778    1.0000 </r>
       <r>   -4.4579    1.0000 </r>
       <r>   -4.4579    1.0000 </r>
       <r>   -3.5649    1.0000 </r>
       <r>   -3.5649    1.0000 </r>
       <r>   -3.5649    1.0000 </r>
       <r>   -3.5649    1.0000 </r>
       <r>   -3.5177    1.0000 </r>
       <r>   -3.5177    1.0000 </r>
       <r>   -3.5177    1.0000 </r>
       <r>   -3.5177    1.0000 </r>
       <r>   -3.2802    1.0000 </r>
       <r>   -3.2802    1.0000 </r>
       <r>   -2.5362    1.0000 </r>
       <r>   -2.5362    1.0000 </r>
       <r>   -2.4876    1.0000 </r>
       <r>   -2.4876    1.0000 </r>
       <r>   -2.4876    1.0000 </r>
       <r>   -2.4876    1.0000 </r>
       <r>   -2.4388    1.0000 </r>
       <r>   -2.4388    1.0000 </r>
       <r>   -1.3880    1.0000 </r>
       <r>   -1.3880    1.0000 </r>
       <r>   -1.3839    1.0000 </r>
       <r>   -1.3839    1.0000 </r>
       <r>   -1.3338    1.0000 </r>
       <r>   -1.3338    1.0000 </r>
       <r>   -1.3273    1.0000 </r>
       <r>   -1.3273    1.0000 </r>
       <r>   -0.1163    1.0000 </r>
       <r>   -0.1163    1.0000 </r>
       <r>   -0.1096    1.0000 </r>
       <r>   -0.1096    1.0000 </r>
       <r>   -0.1096    1.0000 </r>
       <r>   -0.1096    1.0000 </r>
       <r>   -0.1050    1.0000 </r>
       <r>   -0.1050    1.0000 </r>
       <r>   -0.0803    1.0000 </r>
       <r>   -0.0803    1.0000 </r>
       <r>   -0.0803    1.0000 </r>
       <r>   -0.0803    1.0000 </r>
       <r>   -0.0115    1.0000 </r>
       <r>   -0.0115    1.0000 </r>
       <r>   -0.0115    1.0000 </r>
       <r>   -0.0115    1.0000 </r>
       <r>    0.8903    1.0000 </r>
       <r>    0.8903    1.0000 </r>
       <r>    1.9668    1.0000 </r>
       <r>    1.9668    1.0000 </r>
       <r>    1.9749    1.0000 </r>
       <r>    1.9749    1.0000 </r>
       <r>    1.9749    1.0000 </r>
       <r>    1.9749    1.0000 </r>
       <r>    1.9819    1.0000 </r>
       <r>    1.9819    1.0000 </r>
       <r>    2.2571    1.0000 </r>
       <r>    2.2571    1.0000 </r>
       <r>    2.2795    1.0000 </r>
       <r>    2.2795    1.0000 </r>
       <r>    2.2795    1.0000 </r>
       <r>    2.2795    1.0000 </r>
       <r>    2.3099    1.0000 </r>
       <r>    2.3099    1.0000 </r>
       <r>    2.8511    1.0000 </r>
       <r>    2.8511    1.0000 </r>
       <r>    2.9197    1.0000 </r>
       <r>    2.9197    1.0000 </r>
       <r>    2.9347    1.0000 </r>
       <r>    2.9347    1.0000 </r>
       <r>    3.0053    1.0000 </r>
       <r>    3.0053    1.0000 </r>
       <r>    3.6622    1.0000 </r>
       <r>    3.6622    1.0000 </r>
       <r>    3.6899    1.0000 </r>
       <r>    3.6899    1.0000 </r>
       <r>    3.6899    1.0000 </r>
       <r>    3.6899    1.0000 </r>
       <r>    3.7100    1.0000 </r>
       <r>    3.7100    1.0000 </r>
       <r>    3.7708    1.0000 </r>
       <r>    3.7708    1.0000 </r>
       <r>    3.7711    1.0000 </r>
       <r>    3.7711    1.0000 </r>
       <r>    3.8347    1.0000 </r>
       <r>    3.8347    1.0000 </r>
       <r>    3.8964    1.0000 </r>
       <r>    3.8964    1.0000 </r>
       <r>    3.8964    1.0000 </r>
       <r>    3.8964    1.0000 </r>
       <r>    3.9597    1.0000 </r>
       <r>    3.9597    1.0000 </r>
       <r>    4.0588    1.0000 </r>
       <r>    4.0588    1.0000 </r>
       <r>    4.0588    1.0000 </r>
       <r>    4.0588    1.0000 </r>
       <r>    4.1848    1.0000 </r>
       <r>    4.1848    1.0000 </r>
       <r>    4.1848    1.0000 </r>
       <r>    4.1848    1.0000 </r>
       <r>    5.1110    1.0000 </r>
       <r>    5.1110    1.0000 </r>
       <r>    5.1558    1.0000 </r>
       <r>    5.1558    1.0000 </r>
       <r>    5.1558    1.0000 </r>
       <r>    5.1558    1.0000 </r>
       <r>    5.2030    1.0000 </r>
       <r>    5.2030    1.0000 </r>
       <r>    5.2287    1.0000 </r>
       <r>    5.2287    1.0000 </r>
       <r>    5.2287    1.0000 </r>
       <r>    5.2287    1.0000 </r>
       <r>    5.2701    1.0000 </r>
       <r>    5.2701    1.0000 </r>
       <r>    5.2702    1.0000 </r>
       <r>    5.2702    1.0000 </r>
       <r>    5.4715    1.0000 </r>
       <r>    5.4715    1.0000 </r>
       <r>    5.7449    1.0000 </r>
       <r>    5.7449    1.0000 </r>
       <r>    5.7696    1.0000 </r>
       <r>    5.7696    1.0000 </r>
       <r>    6.9510    0.1710 </r>
       <r>    6.9510    0.1710 </r>
       <r>    7.8968   -0.0000 </r>
       <r>    7.8968   -0.0000 </r>
       <r>    8.4209   -0.0000 </r>
       <r>    8.4209   -0.0000 </r>
       <r>    8.5557   -0.0000 </r>
       <r>    8.5557   -0.0000 </r>
       <r>    8.5662   -0.0000 </r>
       <r>    8.5662   -0.0000 </r>
       <r>    8.5914   -0.0000 </r>
       <r>    8.5914   -0.0000 </r>
       <r>    8.7277   -0.0000 </r>
       <r>    8.7277   -0.0000 </r>
       <r>    9.0114   -0.0000 </r>
       <r>    9.0114   -0.0000 </r>
       <r>    9.0114   -0.0000 </r>
       <r>    9.0114   -0.0000 </r>
       <r>    9.0919   -0.0000 </r>
       <r>    9.0919   -0.0000 </r>
       <r>    9.0920   -0.0000 </r>
       <r>    9.0921   -0.0000 </r>
       <r>    9.1039   -0.0000 </r>
       <r>    9.1040   -0.0000 </r>
       <r>    9.1430   -0.0000 </r>
       <r>    9.1430   -0.0000 </r>
       <r>    9.1431   -0.0000 </r>
       <r>    9.1434   -0.0000 </r>
       <r>    9.2028   -0.0000 </r>
       <r>    9.2029   -0.0000 </r>
       <r>    9.3326   -0.0000 </r>
       <r>    9.3630   -0.0000 </r>
       <r>    9.4596   -0.0000 </r>
       <r>    9.4978   -0.0000 </r>
      </set>
      <set comment="kpoint 3">
       <r>   -5.6192    1.0000 </r>
       <r>   -5.6192    1.0000 </r>
[...]
      </set>
     </set>
    </set>
   </array>
  </eigenvalues>
  <separator name="orbital magnetization" >
   <v name="MAGDIPOLOUT">      0.00000000      0.00000000      0.00000000</v>
  </separator>
  <dos>
   <i name="efermi">      6.86505727 </i>
   <total>
    <array>
     <dimension dim="1">gridpoints</dimension>
     <dimension dim="2">spin</dimension>
     <field>energy</field>
     <field>total</field>
     <field>integrated</field>
     <set>
      <set comment="spin 1">
       <r>    -7.9111     0.0000     0.0000 </r>
       <r>    -7.8442     0.0000     0.0000 </r>
       <r>    -7.7772     0.0000     0.0000 </r>
       <r>    -7.7103     0.0000     0.0000 </r>
       <r>    -7.6434     0.0000     0.0000 </r>
       <r>    -7.5764    -0.0000    -0.0000 </r>
       <r>    -7.5095    -0.0000    -0.0000 </r>
       <r>    -7.4425    -0.0000    -0.0000 </r>
       <r>    -7.3756    -0.0000    -0.0000 </r>
       <r>    -7.3086    -0.0000    -0.0000 </r>
       <r>    -7.2417    -0.0000    -0.0000 </r>
       <r>    -7.1747    -0.0000    -0.0000 </r>
       <r>    -7.1078    -0.0000    -0.0000 </r>
       <r>    -7.0408    -0.0000    -0.0000 </r>
       <r>    -6.9739    -0.0000    -0.0000 </r>
       <r>    -6.9070    -0.0000    -0.0000 </r>
       <r>    -6.8400    -0.0000    -0.0000 </r>
       <r>    -6.7731    -0.0000    -0.0000 </r>
       <r>    -6.7061    -0.0000    -0.0000 </r>
       <r>    -6.6392    -0.0000    -0.0000 </r>
       <r>    -6.5722    -0.0001    -0.0000 </r>
       <r>    -6.5053    -0.0004    -0.0000 </r>
       <r>    -6.4383    -0.0019    -0.0002 </r>
       <r>    -6.3714    -0.0077    -0.0007 </r>
       <r>    -6.3045    -0.0233    -0.0022 </r>
       <r>    -6.2375    -0.0485    -0.0055 </r>
       <r>    -6.1706    -0.0550    -0.0092 </r>
       <r>    -6.1036     0.0247    -0.0075 </r>
       <r>    -6.0367     0.2378     0.0084 </r>
       <r>    -5.9697     0.5032     0.0421 </r>
       <r>    -5.9028     0.6770     0.0874 </r>
       <r>    -5.8358     0.8944     0.1473 </r>
       <r>    -5.7689     1.6865     0.2602 </r>
       <r>    -5.7020     3.3001     0.4811 </r>
       <r>    -5.6350     4.9705     0.8139 </r>
       <r>    -5.5681     5.6985     1.1954 </r>
       <r>    -5.5011     5.9511     1.5938 </r>
       <r>    -5.4342     7.3639     2.0867 </r>
       <r>    -5.3672    10.0766     2.7613 </r>
       <r>    -5.3003    11.8280     3.5531 </r>
       <r>    -5.2333    10.9469     4.2860 </r>
       <r>    -5.1664     8.8086     4.8756 </r>
       <r>    -5.0995     7.6983     5.3910 </r>
       <r>    -5.0325     7.5634     5.8973 </r>
       <r>    -4.9656     6.7937     6.3521 </r>
       <r>    -4.8986     5.1861     6.6993 </r>
       <r>    -4.8317     4.0766     6.9722 </r>
       <r>    -4.7647     4.1518     7.2502 </r>
       <r>    -4.6978     5.2842     7.6039 </r>
       <r>    -4.6308     8.2718     8.1577 </r>
       <r>    -4.5639    14.0856     9.1006 </r>
       <r>    -4.4970    20.8847    10.4987 </r>
       <r>    -4.4300    24.8694    12.1636 </r>
       <r>    -4.3631    25.2893    13.8566 </r>
       <r>    -4.2961    25.1359    15.5393 </r>
       <r>    -4.2292    25.4543    17.2433 </r>
       <r>    -4.1622    23.0767    18.7882 </r>
       <r>    -4.0953    15.9189    19.8539 </r>
       <r>    -4.0283     6.8073    20.3096 </r>
       <r>    -3.9614     0.2760    20.3281 </r>
       <r>    -3.8944    -1.5977    20.2211 </r>
       <r>    -3.8275     0.9072    20.2819 </r>
       <r>    -3.7606     6.9292    20.7457 </r>
       <r>    -3.6936    15.2437    21.7662 </r>
       <r>    -3.6267    23.6203    23.3475 </r>
       <r>    -3.5597    28.9896    25.2882 </r>
       <r>    -3.4928    28.9798    27.2282 </r>
       <r>    -3.4258    23.9563    28.8320 </r>
       <r>    -3.3589    17.3116    29.9909 </r>
       <r>    -3.2919    13.2976    30.8811 </r>
       <r>    -3.2250    14.5902    31.8578 </r>
       <r>    -3.1581    21.0382    33.2662 </r>
       <r>    -3.0911    29.5658    35.2455 </r>
       <r>    -3.0242    35.9345    37.6511 </r>
       <r>    -2.9572    37.7925    40.1811 </r>
       <r>    -2.8903    35.9918    42.5906 </r>
       <r>    -2.8233    32.7600    44.7837 </r>
       <r>    -2.7564    29.3169    46.7463 </r>
       <r>    -2.6894    26.1339    48.4958 </r>
       <r>    -2.6225    24.4107    50.1300 </r>
       <r>    -2.5556    24.7105    51.7842 </r>
       <r>    -2.4886    24.5177    53.4256 </r>
       <r>    -2.4217    20.3376    54.7870 </r>
       <r>    -2.3547    12.3618    55.6146 </r>
       <r>    -2.2878     4.4651    55.9135 </r>
       <r>    -2.2208    -0.2352    55.8978 </r>
       <r>    -2.1539    -1.7244    55.7823 </r>
       <r>    -2.0869    -1.3357    55.6929 </r>
       <r>    -2.0200     0.4815    55.7251 </r>
       <r>    -1.9531     4.0220    55.9944 </r>
       <r>    -1.8861     8.5235    56.5650 </r>
       <r>    -1.8192    11.4617    57.3323 </r>
       <r>    -1.7522    10.5441    58.0382 </r>
       <r>    -1.6853     6.3714    58.4647 </r>
       <r>    -1.6183     2.4535    58.6289 </r>
       <r>    -1.5514     2.6487    58.8062 </r>
       <r>    -1.4844     8.7075    59.3892 </r>
       <r>    -1.4175    19.1514    60.6713 </r>
       <r>    -1.3506    29.4847    62.6451 </r>
       <r>    -1.2836    34.3311    64.9434 </r>
       <r>    -1.2167    30.9360    67.0144 </r>
       <r>    -1.1497    21.2093    68.4342 </r>
       <r>    -1.0828    10.3734    69.1287 </r>
       <r>    -1.0158     3.5669    69.3675 </r>
       <r>    -0.9489     3.0451    69.5713 </r>
       <r>    -0.8819     7.2624    70.0575 </r>
       <r>    -0.8150    12.0052    70.8612 </r>
       <r>    -0.7480    13.5495    71.7682 </r>
       <r>    -0.6811    12.1569    72.5821 </r>
       <r>    -0.6142    12.0072    73.3859 </r>
       <r>    -0.5472    16.0633    74.4613 </r>
       <r>    -0.4803    21.2797    75.8858 </r>
       <r>    -0.4133    21.3617    77.3159 </r>
       <r>    -0.3464    15.1725    78.3316 </r>
       <r>    -0.2794    10.2283    79.0163 </r>
       <r>    -0.2125    15.9773    80.0859 </r>
       <r>    -0.1455    33.7567    82.3457 </r>
       <r>    -0.0786    53.9042    85.9543 </r>
       <r>    -0.0117    63.1798    90.1839 </r>
       <r>     0.0553    55.5520    93.9028 </r>
       <r>     0.1222    36.1644    96.3238 </r>
       <r>     0.1892    15.7112    97.3756 </r>
       <r>     0.2561     2.1002    97.5162 </r>
       <r>     0.3231    -2.6906    97.3361 </r>
       <r>     0.3900    -0.0358    97.3337 </r>
       <r>     0.4570     7.9262    97.8643 </r>
       <r>     0.5239    17.6378    99.0450 </r>
       <r>     0.5908    23.8014   100.6384 </r>
       <r>     0.6578    22.8220   102.1662 </r>
       <r>     0.7247    16.2549   103.2544 </r>
       <r>     0.7917     9.2997   103.8770 </r>
       <r>     0.8586     6.5679   104.3167 </r>
       <r>     0.9256     9.9078   104.9799 </r>
       <r>     0.9925    18.1711   106.1964 </r>
       <r>     1.0595    27.2330   108.0195 </r>
       <r>     1.1264    31.5862   110.1340 </r>
       <r>     1.1933    28.1249   112.0168 </r>
       <r>     1.2603    18.7355   113.2711 </r>
       <r>     1.3272     8.5573   113.8439 </r>
       <r>     1.3942     1.7091   113.9584 </r>
       <r>     1.4611    -1.1217   113.8833 </r>
       <r>     1.5281    -1.6646   113.7718 </r>
       <r>     1.5950    -1.7231   113.6565 </r>
       <r>     1.6620    -1.6550   113.5457 </r>
       <r>     1.7289    -0.0300   113.5437 </r>
       <r>     1.7958     5.4330   113.9074 </r>
       <r>     1.8628    15.3191   114.9329 </r>
       <r>     1.9297    26.0879   116.6794 </r>
       <r>     1.9967    31.5538   118.7917 </r>
       <r>     2.0636    28.7449   120.7160 </r>
       <r>     2.1306    22.0102   122.1895 </r>
       <r>     2.1975    19.3151   123.4826 </r>
       <r>     2.2645    23.9565   125.0863 </r>
       <r>     2.3314    31.5059   127.1955 </r>
       <r>     2.3983    35.3215   129.5601 </r>
       <r>     2.4653    32.9504   131.7659 </r>
       <r>     2.5322    26.4303   133.5353 </r>
       <r>     2.5992    19.4508   134.8374 </r>
       <r>     2.6661    16.6391   135.9513 </r>
       <r>     2.7331    23.1586   137.5016 </r>
       <r>     2.8000    40.7752   140.2313 </r>
       <r>     2.8670    63.3756   144.4740 </r>
       <r>     2.9339    78.7113   149.7433 </r>
       <r>     3.0009    77.0293   154.9000 </r>
       <r>     3.0678    58.9006   158.8431 </r>
       <r>     3.1347    34.3335   161.1415 </r>
       <r>     3.2017    14.1256   162.0871 </r>
       <r>     3.2686     2.5513   162.2579 </r>
       <r>     3.3356    -2.0857   162.1183 </r>
       <r>     3.4025    -1.9061   161.9907 </r>
       <r>     3.4695     4.0331   162.2607 </r>
       <r>     3.5364    17.7338   163.4479 </r>
       <r>     3.6034    37.2748   165.9432 </r>
       <r>     3.6703    55.3238   169.6469 </r>
       <r>     3.7372    64.6600   173.9755 </r>
       <r>     3.8042    64.7988   178.3134 </r>
       <r>     3.8711    60.9867   182.3962 </r>
       <r>     3.9381    57.1134   186.2196 </r>
       <r>     4.0050    52.5750   189.7392 </r>
       <r>     4.0720    46.6090   192.8595 </r>
       <r>     4.1389    42.1161   195.6789 </r>
       <r>     4.2059    42.2216   198.5054 </r>
       <r>     4.2728    44.7443   201.5008 </r>
       <r>     4.3397    43.5130   204.4138 </r>
       <r>     4.4067    35.5028   206.7905 </r>
       <r>     4.4736    24.6147   208.4383 </r>
       <r>     4.5406    17.7629   209.6274 </r>
       <r>     4.6075    18.4679   210.8638 </r>
       <r>     4.6745    24.7626   212.5215 </r>
       <r>     4.7414    32.1019   214.6706 </r>
       <r>     4.8084    37.0456   217.1506 </r>
       <r>     4.8753    38.5388   219.7305 </r>
       <r>     4.9422    37.5700   222.2456 </r>
       <r>     5.0092    36.6784   224.7011 </r>
       <r>     5.0761    38.3751   227.2701 </r>
       <r>     5.1431    42.6490   230.1252 </r>
       <r>     5.2100    46.7507   233.2549 </r>
       <r>     5.2770    47.7829   236.4537 </r>
       <r>     5.3439    44.4749   239.4311 </r>
       <r>     5.4109    36.8567   241.8984 </r>
       <r>     5.4778    26.1901   243.6517 </r>
       <r>     5.5447    15.6305   244.6981 </r>
       <r>     5.6117     9.3655   245.3251 </r>
       <r>     5.6786     9.7249   245.9761 </r>
       <r>     5.7456    14.9293   246.9755 </r>
       <r>     5.8125    20.1530   248.3247 </r>
       <r>     5.8795    21.2747   249.7489 </r>
       <r>     5.9464    17.6656   250.9315 </r>
       <r>     6.0134    11.5874   251.7072 </r>
       <r>     6.0803     5.8383   252.0981 </r>
       <r>     6.1473     2.4052   252.2591 </r>
       <r>     6.2142     2.2401   252.4090 </r>
       <r>     6.2811     4.9159   252.7381 </r>
       <r>     6.3481     8.4541   253.3041 </r>
       <r>     6.4150    10.4391   254.0029 </r>
       <r>     6.4820     9.8078   254.6595 </r>
       <r>     6.5489     7.3750   255.1532 </r>
       <r>     6.6159     4.6589   255.4651 </r>
       <r>     6.6828     2.6263   255.6409 </r>
       <r>     6.7498     1.5840   255.7470 </r>
       <r>     6.8167     1.7061   255.8612 </r>
       <r>     6.8836     3.1823   256.0742 </r>
       <r>     6.9506     5.7918   256.4619 </r>
       <r>     7.0175     8.4961   257.0307 </r>
       <r>     7.0845     9.7850   257.6858 </r>
       <r>     7.1514     8.7619   258.2723 </r>
       <r>     7.2184     5.9230   258.6688 </r>
       <r>     7.2853     2.7979   258.8561 </r>
       <r>     7.3523     1.0140   258.9240 </r>
       <r>     7.4192     1.6753   259.0362 </r>
       <r>     7.4861     4.8925   259.3637 </r>
       <r>     7.5531     9.3155   259.9873 </r>
       <r>     7.6200    12.6424   260.8337 </r>
       <r>     7.6870    13.5506   261.7408 </r>
       <r>     7.7539    13.3295   262.6331 </r>
       <r>     7.8209    14.8635   263.6282 </r>
       <r>     7.8878    19.2393   264.9161 </r>
       <r>     7.9548    23.7425   266.5056 </r>
       <r>     8.0217    24.2236   268.1272 </r>
       <r>     8.0886    19.4275   269.4278 </r>
       <r>     8.1556    12.4996   270.2646 </r>
       <r>     8.2225     8.6545   270.8439 </r>
       <r>     8.2895    11.4557   271.6108 </r>
       <r>     8.3564    20.2912   272.9692 </r>
       <r>     8.4234    30.8762   275.0362 </r>
       <r>     8.4903    38.2472   277.5967 </r>
       <r>     8.5573    39.2960   280.2273 </r>
       <r>     8.6242    33.8804   282.4954 </r>
       <r>     8.6911    25.5189   284.2038 </r>
       <r>     8.7581    20.2860   285.5618 </r>
       <r>     8.8250    22.8802   287.0935 </r>
       <r>     8.8920    33.4497   289.3328 </r>
       <r>     8.9589    48.3759   292.5713 </r>
       <r>     9.0259    62.8709   296.7802 </r>
       <r>     9.0928    72.3143   301.6212 </r>
       <r>     9.1598    73.0699   306.5129 </r>
       <r>     9.2267    64.2684   310.8153 </r>
       <r>     9.2937    48.9289   314.0908 </r>
       <r>     9.3606    32.4971   316.2663 </r>
       <r>     9.4275    20.1176   317.6131 </r>
       <r>     9.4945    14.6144   318.5915 </r>
       <r>     9.5614    15.2461   319.6121 </r>
       <r>     9.6284    17.8527   320.8073 </r>
       <r>     9.6953    17.7580   321.9961 </r>
       <r>     9.7623    13.5229   322.9013 </r>
       <r>     9.8292     7.4350   323.3991 </r>
       <r>     9.8962     2.5522   323.5699 </r>
       <r>     9.9631     0.1966   323.5831 </r>
       <r>    10.0300    -0.0308   323.5810 </r>
       <r>    10.0970     0.8230   323.6361 </r>
       <r>    10.1639     1.7053   323.7503 </r>
       <r>    10.2309     1.9092   323.8781 </r>
       <r>    10.2978     1.3821   323.9706 </r>
       <r>    10.3648     0.6127   324.0116 </r>
       <r>    10.4317     0.0823   324.0171 </r>
       <r>    10.4987    -0.1015   324.0104 </r>
       <r>    10.5656    -0.0922   324.0042 </r>
       <r>    10.6325    -0.0439   324.0012 </r>
       <r>    10.6995    -0.0144   324.0003 </r>
       <r>    10.7664    -0.0035   324.0000 </r>
       <r>    10.8334    -0.0006   324.0000 </r>
       <r>    10.9003    -0.0001   324.0000 </r>
       <r>    10.9673    -0.0000   324.0000 </r>
       <r>    11.0342    -0.0000   324.0000 </r>
       <r>    11.1012    -0.0000   324.0000 </r>
       <r>    11.1681    -0.0000   324.0000 </r>
       <r>    11.2350    -0.0000   324.0000 </r>
       <r>    11.3020    -0.0000   324.0000 </r>
       <r>    11.3689    -0.0000   324.0000 </r>
       <r>    11.4359    -0.0000   324.0000 </r>
       <r>    11.5028     0.0000   324.0000 </r>
       <r>    11.5698     0.0000   324.0000 </r>
       <r>    11.6367     0.0000   324.0000 </r>
       <r>    11.7037     0.0000   324.0000 </r>
       <r>    11.7706     0.0000   324.0000 </r>
       <r>    11.8375     0.0000   324.0000 </r>
       <r>    11.9045     0.0000   324.0000 </r>
       <r>    11.9714     0.0000   324.0000 </r>
       <r>    12.0384     0.0000   324.0000 </r>
       <r>    12.1053     0.0000   324.0000 </r>
       <r>    12.1723     0.0000   324.0000 </r>
      </set>
     </set>
    </array>
   </total>
  </dos>
 </calculation>
 <structure name="finalpos" >
  <crystal>
   <varray name="basis" >
    <v>      10.45092254      -0.07957601       0.00000000 </v>
    <v>      -0.07957601      10.61007357       0.00000000 </v>
    <v>       0.00000000       0.00000000      10.61007357 </v>
   </varray>
   <i name="volume">   1176.43142592 </i>
   <varray name="rec_basis" >
    <v>       0.09569080       0.00071769       0.00000000 </v>
    <v>       0.00071769       0.09425544       0.00000000 </v>
    <v>       0.00000000       0.00000000       0.09425005 </v>
   </varray>
  </crystal>
  <varray name="positions" >
   <v>       0.00000000       0.00000000       0.99934151 </v>
   <v>       0.00000000       0.00000000       0.49934151 </v>
   <v>       0.00000000       0.50000000       0.99934151 </v>
   <v>       0.00000000       0.50000000       0.49934151 </v>
   <v>       0.50000000       0.00000000       0.99934151 </v>
   <v>       0.50000000       0.00000000       0.49934151 </v>
   <v>       0.50000000       0.50000000       0.99934151 </v>
   <v>       0.50000000       0.50000000       0.49934151 </v>
   <v>       0.37500000       0.37500000       0.12565849 </v>
   <v>       0.37500000       0.37500000       0.62565849 </v>
   <v>       0.37500000       0.87500000       0.12565849 </v>
   <v>       0.37500000       0.87500000       0.62565849 </v>
   <v>       0.87500000       0.37500000       0.12565849 </v>
   <v>       0.87500000       0.37500000       0.62565849 </v>
   <v>       0.87500000       0.87500000       0.12565849 </v>
   <v>       0.87500000       0.87500000       0.62565849 </v>
   <v>       0.00000000       0.25000000       0.24934151 </v>
   <v>       0.00000000       0.25000000       0.74934151 </v>
   <v>       0.00000000       0.75000000       0.24934151 </v>
   <v>       0.00000000       0.75000000       0.74934151 </v>
   <v>       0.50000000       0.25000000       0.24934151 </v>
   <v>       0.50000000       0.25000000       0.74934151 </v>
   <v>       0.50000000       0.75000000       0.24934151 </v>
   <v>       0.50000000       0.75000000       0.74934151 </v>
   <v>       0.37500000       0.12500000       0.37565849 </v>
   <v>       0.37500000       0.12500000       0.87565849 </v>
   <v>       0.37500000       0.62500000       0.37565849 </v>
   <v>       0.37500000       0.62500000       0.87565849 </v>
   <v>       0.87500000       0.12500000       0.37565849 </v>
   <v>       0.87500000       0.12500000       0.87565849 </v>
   <v>       0.87500000       0.62500000       0.37565849 </v>
   <v>       0.87500000       0.62500000       0.87565849 </v>
   <v>       0.25000000       0.00000000       0.24934151 </v>
   <v>       0.25000000       0.00000000       0.74934151 </v>
   <v>       0.25000000       0.50000000       0.24934151 </v>
   <v>       0.25000000       0.50000000       0.74934151 </v>
   <v>       0.75000000       0.00000000       0.24934151 </v>
   <v>       0.75000000       0.00000000       0.74934151 </v>
   <v>       0.75000000       0.50000000       0.24934151 </v>
   <v>       0.75000000       0.50000000       0.74934151 </v>
   <v>       0.12500000       0.37500000       0.37565849 </v>
   <v>       0.12500000       0.37500000       0.87565849 </v>
   <v>       0.12500000       0.87500000       0.37565849 </v>
   <v>       0.12500000       0.87500000       0.87565849 </v>
   <v>       0.62500000       0.37500000       0.37565849 </v>
   <v>       0.62500000       0.37500000       0.87565849 </v>
   <v>       0.62500000       0.87500000       0.37565849 </v>
   <v>       0.62500000       0.87500000       0.87565849 </v>
   <v>       0.25000000       0.25000000       0.99934151 </v>
   <v>       0.25000000       0.25000000       0.49934151 </v>
   <v>       0.25000000       0.75000000       0.99934151 </v>
   <v>       0.25000000       0.75000000       0.49934151 </v>
   <v>       0.75000000       0.25000000       0.99934151 </v>
   <v>       0.75000000       0.25000000       0.49934151 </v>
   <v>       0.75000000       0.75000000       0.99934151 </v>
   <v>       0.75000000       0.75000000       0.49934151 </v>
   <v>       0.12500000       0.12500000       0.12565849 </v>
   <v>       0.12500000       0.12500000       0.62565849 </v>
   <v>       0.12500000       0.62500000       0.12565849 </v>
   <v>       0.12500000       0.62500000       0.62565849 </v>
   <v>       0.62500000       0.12500000       0.12565849 </v>
   <v>       0.62500000       0.12500000       0.62565849 </v>
   <v>       0.62500000       0.62500000       0.12565849 </v>
   <v>       0.62500000       0.62500000       0.62565849 </v>
  </varray>
 </structure>
</modeling>
