Si64                                    
           1
    10.450923   -0.079576    0.000000
    -0.079576   10.610074    0.000000
     0.000000    0.000000   10.610074
   Si
    64
Direct configuration=     1
   0.00000000  0.00000000  0.00000000
   0.00000000  0.00000000  0.50000000
   0.00000000  0.50000000  0.00000000
   0.00000000  0.50000000  0.50000000
   0.50000000  0.00000000  0.00000000
   0.50000000  0.00000000  0.50000000
   0.50000000  0.50000000  0.00000000
   0.50000000  0.50000000  0.50000000
   0.37500000  0.37500000  0.12500000
   0.37500000  0.37500000  0.62500000
   0.37500000  0.87500000  0.12500000
   0.37500000  0.87500000  0.62500000
   0.87500000  0.37500000  0.12500000
   0.87500000  0.37500000  0.62500000
   0.87500000  0.87500000  0.12500000
   0.87500000  0.87500000  0.62500000
   0.00000000  0.25000000  0.25000000
   0.00000000  0.25000000  0.75000000
   0.00000000  0.75000000  0.25000000
   0.00000000  0.75000000  0.75000000
   0.50000000  0.25000000  0.25000000
   0.50000000  0.25000000  0.75000000
   0.50000000  0.75000000  0.25000000
   0.50000000  0.75000000  0.75000000
   0.37500000  0.12500000  0.37500000
   0.37500000  0.12500000  0.87500000
   0.37500000  0.62500000  0.37500000
   0.37500000  0.62500000  0.87500000
   0.87500000  0.12500000  0.37500000
   0.87500000  0.12500000  0.87500000
   0.87500000  0.62500000  0.37500000
   0.87500000  0.62500000  0.87500000
   0.25000000  0.00000000  0.25000000
   0.25000000  0.00000000  0.75000000
   0.25000000  0.50000000  0.25000000
   0.25000000  0.50000000  0.75000000
   0.75000000  0.00000000  0.25000000
   0.75000000  0.00000000  0.75000000
   0.75000000  0.50000000  0.25000000
   0.75000000  0.50000000  0.75000000
   0.12500000  0.37500000  0.37500000
   0.12500000  0.37500000  0.87500000
   0.12500000  0.87500000  0.37500000
   0.12500000  0.87500000  0.87500000
   0.62500000  0.37500000  0.37500000
   0.62500000  0.37500000  0.87500000
   0.62500000  0.87500000  0.37500000
   0.62500000  0.87500000  0.87500000
   0.25000000  0.25000000  0.00000000
   0.25000000  0.25000000  0.50000000
   0.25000000  0.75000000  0.00000000
   0.25000000  0.75000000  0.50000000
   0.75000000  0.25000000  0.00000000
   0.75000000  0.25000000  0.50000000
   0.75000000  0.75000000  0.00000000
   0.75000000  0.75000000  0.50000000
   0.12500000  0.12500000  0.12500000
   0.12500000  0.12500000  0.62500000
   0.12500000  0.62500000  0.12500000
   0.12500000  0.62500000  0.62500000
   0.62500000  0.12500000  0.12500000
   0.62500000  0.12500000  0.62500000
   0.62500000  0.62500000  0.12500000
   0.62500000  0.62500000  0.62500000
Direct configuration=     2
   0.00000000  1.00000000  0.99902093
   0.00000000  1.00000000  0.49902093
   0.00000000  0.50000000  0.99902093
   0.00000000  0.50000000  0.49902093
   0.50000000  0.00000000  0.99902093
   0.50000000  0.00000000  0.49902093
   0.50000000  0.50000000  0.99902093
   0.50000000  0.50000000  0.49902093
   0.37500000  0.37500000  0.12597907
   0.37500000  0.37500000  0.62597907
   0.37500000  0.87500000  0.12597907
   0.37500000  0.87500000  0.62597907
   0.87500000  0.37500000  0.12597907
   0.87500000  0.37500000  0.62597907
   0.87500000  0.87500000  0.12597907
   0.87500000  0.87500000  0.62597907
   0.00000000  0.25000000  0.24902093
   1.00000000  0.25000000  0.74902093
   0.00000000  0.75000000  0.24902093
   0.00000000  0.75000000  0.74902093
   0.50000000  0.25000000  0.24902093
   0.50000000  0.25000000  0.74902093
   0.50000000  0.75000000  0.24902093
   0.50000000  0.75000000  0.74902093
   0.37500000  0.12500000  0.37597907
   0.37500000  0.12500000  0.87597907
   0.37500000  0.62500000  0.37597907
   0.37500000  0.62500000  0.87597907
   0.87500000  0.12500000  0.37597907
   0.87500000  0.12500000  0.87597907
   0.87500000  0.62500000  0.37597907
   0.87500000  0.62500000  0.87597907
   0.25000000  0.00000000  0.24902093
   0.25000000  0.00000000  0.74902093
   0.25000000  0.50000000  0.24902093
   0.25000000  0.50000000  0.74902093
   0.75000000  0.00000000  0.24902093
   0.75000000  1.00000000  0.74902093
   0.75000000  0.50000000  0.24902093
   0.75000000  0.50000000  0.74902093
   0.12500000  0.37500000  0.37597907
   0.12500000  0.37500000  0.87597907
   0.12500000  0.87500000  0.37597907
   0.12500000  0.87500000  0.87597907
   0.62500000  0.37500000  0.37597907
   0.62500000  0.37500000  0.87597907
   0.62500000  0.87500000  0.37597907
   0.62500000  0.87500000  0.87597907
   0.25000000  0.25000000  0.99902093
   0.25000000  0.25000000  0.49902093
   0.25000000  0.75000000  0.99902093
   0.25000000  0.75000000  0.49902093
   0.75000000  0.25000000  0.99902093
   0.75000000  0.25000000  0.49902093
   0.75000000  0.75000000  0.99902093
   0.75000000  0.75000000  0.49902093
   0.12500000  0.12500000  0.12597907
   0.12500000  0.12500000  0.62597907
   0.12500000  0.62500000  0.12597907
   0.12500000  0.62500000  0.62597907
   0.62500000  0.12500000  0.12597907
   0.62500000  0.12500000  0.62597907
   0.62500000  0.62500000  0.12597907
   0.62500000  0.62500000  0.62597907
Direct configuration=     3
   0.00000000  0.00000000  0.99934151
   0.00000000  0.00000000  0.49934151
   0.00000000  0.50000000  0.99934151
   0.00000000  0.50000000  0.49934151
   0.50000000  0.00000000  0.99934151
   0.50000000  0.00000000  0.49934151
   0.50000000  0.50000000  0.99934151
   0.50000000  0.50000000  0.49934151
   0.37500000  0.37500000  0.12565849
   0.37500000  0.37500000  0.62565849
   0.37500000  0.87500000  0.12565849
   0.37500000  0.87500000  0.62565849
   0.87500000  0.37500000  0.12565849
   0.87500000  0.37500000  0.62565849
   0.87500000  0.87500000  0.12565849
   0.87500000  0.87500000  0.62565849
   0.00000000  0.25000000  0.24934151
   0.00000000  0.25000000  0.74934151
   0.00000000  0.75000000  0.24934151
   0.00000000  0.75000000  0.74934151
   0.50000000  0.25000000  0.24934151
   0.50000000  0.25000000  0.74934151
   0.50000000  0.75000000  0.24934151
   0.50000000  0.75000000  0.74934151
   0.37500000  0.12500000  0.37565849
   0.37500000  0.12500000  0.87565849
   0.37500000  0.62500000  0.37565849
   0.37500000  0.62500000  0.87565849
   0.87500000  0.12500000  0.37565849
   0.87500000  0.12500000  0.87565849
   0.87500000  0.62500000  0.37565849
   0.87500000  0.62500000  0.87565849
   0.25000000  0.00000000  0.24934151
   0.25000000  0.00000000  0.74934151
   0.25000000  0.50000000  0.24934151
   0.25000000  0.50000000  0.74934151
   0.75000000  0.00000000  0.24934151
   0.75000000  0.00000000  0.74934151
   0.75000000  0.50000000  0.24934151
   0.75000000  0.50000000  0.74934151
   0.12500000  0.37500000  0.37565849
   0.12500000  0.37500000  0.87565849
   0.12500000  0.87500000  0.37565849
   0.12500000  0.87500000  0.87565849
   0.62500000  0.37500000  0.37565849
   0.62500000  0.37500000  0.87565849
   0.62500000  0.87500000  0.37565849
   0.62500000  0.87500000  0.87565849
   0.25000000  0.25000000  0.99934151
   0.25000000  0.25000000  0.49934151
   0.25000000  0.75000000  0.99934151
   0.25000000  0.75000000  0.49934151
   0.75000000  0.25000000  0.99934151
   0.75000000  0.25000000  0.49934151
   0.75000000  0.75000000  0.99934151
   0.75000000  0.75000000  0.49934151
   0.12500000  0.12500000  0.12565849
   0.12500000  0.12500000  0.62565849
   0.12500000  0.62500000  0.12565849
   0.12500000  0.62500000  0.62565849
   0.62500000  0.12500000  0.12565849
   0.62500000  0.12500000  0.62565849
   0.62500000  0.62500000  0.12565849
   0.62500000  0.62500000  0.62565849
