  64  64   0   0
  0.1885532E+02  0.1054022E-08  0.1070072E-08  0.1070042E-08  0.5000000E-15
  1.000000000000000E-004
  CAR 
 Si64                                    
     11.88612775     -7.99906603  301      6.62827916      1.00000000
     -7.999  0.0000E+00  0.0000E+00
     -7.933  0.0000E+00  0.0000E+00
     -7.866  0.0000E+00  0.0000E+00
     -7.800  0.0000E+00  0.0000E+00
     -7.734  0.0000E+00  0.0000E+00
     -7.668  0.0000E+00  0.0000E+00
     -7.601 -0.1896E-28 -0.1257E-29
     -7.535 -0.3277E-26 -0.2185E-27
     -7.469 -0.4559E-24 -0.3044E-25
     -7.403 -0.5079E-22 -0.3397E-23
     -7.336 -0.4530E-20 -0.3037E-21
     -7.270 -0.3234E-18 -0.2174E-19
     -7.204 -0.1847E-16 -0.1246E-17
     -7.137 -0.8155E-15 -0.5530E-16
     -7.071 -0.2973E-13 -0.2026E-14
     -7.005 -0.8621E-12 -0.5917E-13
     -6.939 -0.1993E-10 -0.1380E-11
     -6.872 -0.3665E-09 -0.2567E-10
     -6.806 -0.5353E-08 -0.3805E-09
     -6.740 -0.6193E-07 -0.4485E-08
     -6.673 -0.5653E-06 -0.4195E-07
     -6.607 -0.4049E-05 -0.3103E-06
     -6.541 -0.2257E-04 -0.1807E-05
     -6.475 -0.9663E-04 -0.8212E-05
     -6.408 -0.3099E-03 -0.2876E-04
     -6.342 -0.7070E-03 -0.7562E-04
     -6.276 -0.9852E-03 -0.1409E-03
     -6.209 -0.1917E-03 -0.1536E-03
     -6.143  0.2677E-02  0.2382E-04
     -6.077  0.6987E-02  0.4869E-03
     -6.011  0.1048E-01  0.1182E-02
     -5.944  0.1384E-01  0.2099E-02
     -5.878  0.2436E-01  0.3714E-02
     -5.812  0.4821E-01  0.6909E-02
     -5.745  0.7716E-01  0.1202E-01
     -5.679  0.9437E-01  0.1828E-01
     -5.613  0.1007E+00  0.2496E-01
     -5.547  0.1200E+00  0.3291E-01
     -5.480  0.1616E+00  0.4362E-01
     -5.414  0.1958E+00  0.5660E-01
     -5.348  0.1905E+00  0.6922E-01
     -5.281  0.1578E+00  0.7969E-01
     -5.215  0.1347E+00  0.8861E-01
     -5.149  0.1286E+00  0.9713E-01
     -5.083  0.1168E+00  0.1049E+00
     -5.016  0.9144E-01  0.1109E+00
     -4.950  0.7094E-01  0.1156E+00
     -4.884  0.6954E-01  0.1203E+00
     -4.817  0.8837E-01  0.1261E+00
     -4.751  0.1389E+00  0.1353E+00
     -4.685  0.2347E+00  0.1509E+00
     -4.619  0.3480E+00  0.1739E+00
     -4.552  0.4198E+00  0.2018E+00
     -4.486  0.4349E+00  0.2306E+00
     -4.420  0.4345E+00  0.2594E+00
     -4.353  0.4333E+00  0.2881E+00
     -4.287  0.3852E+00  0.3136E+00
     -4.221  0.2620E+00  0.3310E+00
     -4.155  0.1104E+00  0.3383E+00
     -4.088  0.3509E-02  0.3386E+00
     -4.022 -0.2359E-01  0.3370E+00
     -3.956  0.2646E-01  0.3388E+00
     -3.889  0.1386E+00  0.3479E+00
     -3.823  0.2870E+00  0.3670E+00
     -3.757  0.4265E+00  0.3952E+00
     -3.691  0.5013E+00  0.4285E+00
     -3.624  0.4789E+00  0.4602E+00
     -3.558  0.3801E+00  0.4854E+00
     -3.492  0.2708E+00  0.5033E+00
     -3.425  0.2203E+00  0.5180E+00
     -3.359  0.2648E+00  0.5355E+00
     -3.293  0.3906E+00  0.5614E+00
     -3.227  0.5373E+00  0.5970E+00
     -3.160  0.6357E+00  0.6391E+00
     -3.094  0.6562E+00  0.6826E+00
     -3.028  0.6184E+00  0.7236E+00
     -2.961  0.5541E+00  0.7604E+00
     -2.895  0.4829E+00  0.7924E+00
     -2.829  0.4257E+00  0.8206E+00
     -2.763  0.4073E+00  0.8476E+00
     -2.696  0.4150E+00  0.8751E+00
     -2.630  0.3887E+00  0.9009E+00
     -2.564  0.2884E+00  0.9200E+00
     -2.497  0.1481E+00  0.9298E+00
     -2.431  0.3493E-01  0.9321E+00
     -2.365 -0.1999E-01  0.9308E+00
     -2.299 -0.2880E-01  0.9289E+00
     -2.232 -0.8056E-02  0.9283E+00
     -2.166  0.4122E-01  0.9311E+00
     -2.100  0.1141E+00  0.9386E+00
     -2.034  0.1784E+00  0.9505E+00
     -1.967  0.1899E+00  0.9630E+00
     -1.901  0.1369E+00  0.9721E+00
     -1.835  0.6120E-01  0.9762E+00
     -1.768  0.2987E-01  0.9782E+00
     -1.702  0.9092E-01  0.9842E+00
     -1.636  0.2445E+00  0.1000E+01
     -1.570  0.4340E+00  0.1029E+01
     -1.503  0.5663E+00  0.1067E+01
     -1.437  0.5669E+00  0.1104E+01
     -1.371  0.4350E+00  0.1133E+01
     -1.304  0.2448E+00  0.1149E+01
     -1.238  0.9207E-01  0.1155E+01
     -1.172  0.3583E-01  0.1158E+01
     -1.106  0.7369E-01  0.1163E+01
     -1.039  0.1534E+00  0.1173E+01
     -0.973  0.2084E+00  0.1187E+01
     -0.907  0.2057E+00  0.1200E+01
     -0.840  0.1766E+00  0.1212E+01
     -0.774  0.1901E+00  0.1225E+01
     -0.708  0.2725E+00  0.1243E+01
     -0.642  0.3570E+00  0.1266E+01
     -0.575  0.3515E+00  0.1290E+01
     -0.509  0.2667E+00  0.1307E+01
     -0.443  0.2376E+00  0.1323E+01
     -0.376  0.3894E+00  0.1349E+01
     -0.310  0.6928E+00  0.1395E+01
     -0.244  0.9682E+00  0.1459E+01
     -0.178  0.1028E+01  0.1527E+01
     -0.111  0.8258E+00  0.1582E+01
     -0.045  0.4793E+00  0.1614E+01
      0.021  0.1646E+00  0.1625E+01
      0.088 -0.5467E-02  0.1624E+01
      0.154 -0.1299E-01  0.1623E+01
      0.220  0.1027E+00  0.1630E+01
      0.286  0.2684E+00  0.1648E+01
      0.353  0.3881E+00  0.1674E+01
      0.419  0.3927E+00  0.1700E+01
      0.485  0.2953E+00  0.1719E+01
      0.552  0.1741E+00  0.1731E+01
      0.618  0.1041E+00  0.1738E+01
      0.684  0.1194E+00  0.1746E+01
      0.750  0.2169E+00  0.1760E+01
      0.817  0.3591E+00  0.1784E+01
      0.883  0.4769E+00  0.1815E+01
      0.949  0.5002E+00  0.1849E+01
      1.016  0.4078E+00  0.1876E+01
      1.082  0.2475E+00  0.1892E+01
      1.148  0.9802E-01  0.1898E+01
      1.214  0.9281E-02  0.1899E+01
      1.281 -0.2066E-01  0.1898E+01
      1.347 -0.2211E-01  0.1896E+01
      1.413 -0.2149E-01  0.1895E+01
      1.480 -0.2617E-01  0.1893E+01
      1.546 -0.2077E-01  0.1892E+01
      1.612  0.2973E-01  0.1894E+01
      1.678  0.1555E+00  0.1904E+01
      1.745  0.3391E+00  0.1926E+01
      1.811  0.5062E+00  0.1960E+01
      1.877  0.5863E+00  0.1999E+01
      1.944  0.5798E+00  0.2037E+01
      2.010  0.5388E+00  0.2073E+01
      2.076  0.4977E+00  0.2106E+01
      2.142  0.4619E+00  0.2137E+01
      2.209  0.4394E+00  0.2166E+01
      2.275  0.4313E+00  0.2194E+01
      2.341  0.4071E+00  0.2221E+01
      2.408  0.3445E+00  0.2244E+01
      2.474  0.2957E+00  0.2264E+01
      2.540  0.3742E+00  0.2289E+01
      2.606  0.6471E+00  0.2331E+01
      2.673  0.1034E+01  0.2400E+01
      2.739  0.1330E+01  0.2488E+01
      2.805  0.1348E+01  0.2578E+01
      2.872  0.1066E+01  0.2648E+01
      2.938  0.6359E+00  0.2690E+01
      3.004  0.2535E+00  0.2707E+01
      3.070  0.2224E-01  0.2709E+01
      3.137 -0.6755E-01  0.2704E+01
      3.203 -0.5808E-01  0.2700E+01
      3.269  0.4832E-01  0.2704E+01
      3.335  0.2770E+00  0.2722E+01
      3.402  0.6060E+00  0.2762E+01
      3.468  0.9307E+00  0.2824E+01
      3.534  0.1135E+01  0.2899E+01
      3.601  0.1186E+01  0.2978E+01
      3.667  0.1135E+01  0.3053E+01
      3.733  0.1028E+01  0.3121E+01
      3.799  0.8825E+00  0.3180E+01
      3.866  0.7355E+00  0.3228E+01
      3.932  0.6571E+00  0.3272E+01
      3.998  0.6780E+00  0.3317E+01
      4.065  0.7316E+00  0.3365E+01
      4.131  0.7091E+00  0.3412E+01
      4.197  0.5763E+00  0.3450E+01
      4.263  0.4135E+00  0.3478E+01
      4.330  0.3328E+00  0.3500E+01
      4.396  0.3708E+00  0.3524E+01
      4.462  0.4731E+00  0.3556E+01
      4.529  0.5654E+00  0.3593E+01
      4.595  0.6138E+00  0.3634E+01
      4.661  0.6240E+00  0.3675E+01
      4.727  0.6204E+00  0.3716E+01
      4.794  0.6367E+00  0.3759E+01
      4.860  0.6950E+00  0.3805E+01
      4.926  0.7784E+00  0.3856E+01
      4.993  0.8373E+00  0.3912E+01
      5.059  0.8257E+00  0.3967E+01
      5.125  0.7235E+00  0.4015E+01
      5.191  0.5439E+00  0.4051E+01
      5.258  0.3373E+00  0.4073E+01
      5.324  0.1796E+00  0.4085E+01
      5.390  0.1308E+00  0.4094E+01
      5.457  0.1916E+00  0.4106E+01
      5.523  0.2973E+00  0.4126E+01
      5.589  0.3625E+00  0.4150E+01
      5.655  0.3427E+00  0.4173E+01
      5.722  0.2543E+00  0.4190E+01
      5.788  0.1463E+00  0.4199E+01
      5.854  0.6441E-01  0.4203E+01
      5.921  0.3578E-01  0.4206E+01
      5.987  0.6344E-01  0.4210E+01
      6.053  0.1219E+00  0.4218E+01
      6.119  0.1685E+00  0.4229E+01
      6.186  0.1738E+00  0.4241E+01
      6.252  0.1407E+00  0.4250E+01
      6.318  0.9432E-01  0.4256E+01
      6.385  0.5608E-01  0.4260E+01
      6.451  0.3201E-01  0.4262E+01
      6.517  0.2021E-01  0.4264E+01
      6.583  0.2163E-01  0.4265E+01
      6.650  0.4190E-01  0.4268E+01
      6.716  0.8265E-01  0.4273E+01
      6.782  0.1308E+00  0.4282E+01
      6.849  0.1605E+00  0.4293E+01
      6.915  0.1521E+00  0.4303E+01
      6.981  0.1093E+00  0.4310E+01
      7.047  0.5644E-01  0.4314E+01
      7.114  0.2253E-01  0.4315E+01
      7.180  0.2848E-01  0.4317E+01
      7.246  0.7858E-01  0.4322E+01
      7.313  0.1522E+00  0.4332E+01
      7.379  0.2105E+00  0.4346E+01
      7.445  0.2271E+00  0.4361E+01
      7.511  0.2196E+00  0.4376E+01
      7.578  0.2371E+00  0.4392E+01
      7.644  0.3055E+00  0.4412E+01
      7.710  0.3869E+00  0.4437E+01
      7.777  0.4113E+00  0.4465E+01
      7.843  0.3494E+00  0.4488E+01
      7.909  0.2477E+00  0.4504E+01
      7.975  0.1919E+00  0.4517E+01
      8.042  0.2394E+00  0.4533E+01
      8.108  0.3775E+00  0.4558E+01
      8.174  0.5354E+00  0.4593E+01
      8.241  0.6354E+00  0.4636E+01
      8.307  0.6378E+00  0.4678E+01
      8.373  0.5578E+00  0.4715E+01
      8.439  0.4621E+00  0.4745E+01
      8.506  0.4331E+00  0.4774E+01
      8.572  0.5149E+00  0.4808E+01
      8.638  0.6887E+00  0.4854E+01
      8.704  0.8968E+00  0.4913E+01
      8.771  0.1074E+01  0.4985E+01
      8.837  0.1162E+01  0.5062E+01
      8.903  0.1121E+01  0.5136E+01
      8.970  0.9523E+00  0.5199E+01
      9.036  0.7083E+00  0.5246E+01
      9.102  0.4628E+00  0.5277E+01
      9.168  0.2838E+00  0.5295E+01
      9.235  0.2125E+00  0.5310E+01
      9.301  0.2409E+00  0.5325E+01
      9.367  0.3026E+00  0.5346E+01
      9.434  0.3138E+00  0.5366E+01
      9.500  0.2430E+00  0.5382E+01
      9.566  0.1307E+00  0.5391E+01
      9.632  0.3892E-01  0.5394E+01
      9.699 -0.2253E-02  0.5394E+01
      9.765 -0.1645E-02  0.5393E+01
      9.831  0.1619E-01  0.5395E+01
      9.898  0.3003E-01  0.5396E+01
      9.964  0.3014E-01  0.5398E+01
     10.030  0.1943E-01  0.5400E+01
     10.096  0.7234E-02  0.5400E+01
     10.163  0.7938E-04  0.5400E+01
     10.229 -0.1831E-02  0.5400E+01
     10.295 -0.1339E-02  0.5400E+01
     10.362 -0.5815E-03  0.5400E+01
     10.428 -0.1789E-03  0.5400E+01
     10.494 -0.4121E-04  0.5400E+01
     10.560 -0.7295E-05  0.5400E+01
     10.627 -0.1006E-05  0.5400E+01
     10.693 -0.1088E-06  0.5400E+01
     10.759 -0.9295E-08  0.5400E+01
     10.826 -0.6291E-09  0.5400E+01
     10.892 -0.3382E-10  0.5400E+01
     10.958 -0.1447E-11  0.5400E+01
     11.024 -0.4937E-13  0.5400E+01
     11.091 -0.1354E-14  0.5400E+01
     11.157 -0.2792E-16  0.5400E+01
     11.223  0.0000E+00  0.5400E+01
     11.290  0.0000E+00  0.5400E+01
     11.356  0.0000E+00  0.5400E+01
     11.422  0.0000E+00  0.5400E+01
     11.488  0.0000E+00  0.5400E+01
     11.555  0.0000E+00  0.5400E+01
     11.621  0.0000E+00  0.5400E+01
     11.687  0.0000E+00  0.5400E+01
     11.754  0.0000E+00  0.5400E+01
     11.820  0.0000E+00  0.5400E+01
     11.886  0.0000E+00  0.5400E+01
