<?xml version="1.0" encoding="ISO-8859-1"?>
<modeling>
 <generator>
  <i name="program" type="string">vasp </i>
  <i name="version" type="string">6.4.3  </i>
  <i name="subversion" type="string">19Mar24 (build Oct 21 2024 22:36:34) complex                          parallel </i>
  <i name="platform" type="string">LinuxIFC </i>
  <i name="date" type="string">2024 11 01 </i>
  <i name="time" type="string">22:52:07 </i>
 </generator>
 <incar>
  <i type="string" name="SYSTEM">Si64</i>
  <i type="int" name="ISTART">     0</i>
  <i type="string" name="PREC">Accurate</i>
  <i type="string" name="ALGO">Fast</i>
  <i type="logical" name="ADDGRID"> T  </i>
  <i type="int" name="ICHARG">     2</i>
  <i type="int" name="NELM">    60</i>
  <i type="int" name="NELMIN">     8</i>
  <i type="int" name="IBRION">     2</i>
  <i name="EDIFF">      0.00000100</i>
  <i name="EDIFFG">     -0.01000000</i>
  <i type="int" name="NSW">    60</i>
  <i type="int" name="ISIF">     2</i>
  <i name="ENCUT">    400.00000000</i>
  <i type="string" name="LREAL">Auto</i>
  <i type="int" name="ISMEAR">     1</i>
  <i name="SIGMA">      0.20000000</i>
  <i type="logical" name="LWAVE"> F  </i>
  <i type="logical" name="LCHARG"> F  </i>
  <i type="logical" name="GGA_COMPAT"> F  </i>
  <i type="string" name="GGA">PS</i>
 </incar>
 <primitive_cell>
  <structure name="primitive_cell" >
   <crystal>
    <varray name="basis" >
     <v>      -2.63497864       0.02006325      -2.67510515 </v>
     <v>      -2.63497864       0.02006325       2.67510515 </v>
     <v>       2.61491539       2.65504189       0.00000000 </v>
    </varray>
    <i name="volume">     37.71064895 </i>
    <varray name="rec_basis" >
     <v>      -0.18834246       0.18549598      -0.18690854 </v>
     <v>      -0.18834246       0.18549598       0.18690854 </v>
     <v>       0.00284648       0.37383843      -0.00000000 </v>
    </varray>
   </crystal>
   <varray name="positions" >
    <v>       0.00000000       0.00000000       0.00000000 </v>
    <v>       0.75000000       0.25000000       0.50000000 </v>
   </varray>
  </structure>
  <varray name="primitive_index" >
   <v type="int" >        1 </v>
   <v type="int" >       15 </v>
  </varray>
 </primitive_cell>
 <kpoints>
  <generation param="Gamma">
   <v type="int" name="divisions">       2        2        2 </v>
   <v name="usershift">      0.00000000       0.00000000       0.00000000 </v>
   <v name="genvec1">      0.50000000      -0.00000000       0.00000000 </v>
   <v name="genvec2">      0.00000000       0.50000000       0.00000000 </v>
   <v name="genvec3">      0.00000000       0.00000000       0.50000000 </v>
   <v name="shift">      0.00000000       0.00000000       0.00000000 </v>
  </generation>
  <varray name="kpointlist" >
   <v>       0.00000000       0.00000000       0.00000000 </v>
   <v>       0.50000000      -0.00000000       0.00000000 </v>
   <v>      -0.00000000       0.50000000       0.00000000 </v>
   <v>       0.50000000       0.50000000       0.00000000 </v>
   <v>       0.00000000       0.00000000       0.50000000 </v>
   <v>       0.50000000      -0.00000000       0.50000000 </v>
   <v>      -0.00000000       0.50000000       0.50000000 </v>
   <v>       0.50000000       0.50000000       0.50000000 </v>
  </varray>
  <varray name="weights" >
   <v>       0.12500000 </v>
   <v>       0.12500000 </v>
   <v>       0.12500000 </v>
   <v>       0.12500000 </v>
   <v>       0.12500000 </v>
   <v>       0.12500000 </v>
   <v>       0.12500000 </v>
   <v>       0.12500000 </v>
  </varray>
 </kpoints>
 <parameters>
  <separator name="general" >
   <i type="string" name="SYSTEM">Si64</i>
   <i type="logical" name="LCOMPAT"> F  </i>
  </separator>
  <separator name="electronic" >
   <i type="string" name="PREC">accura</i>
   <i name="ENMAX">    400.00000000</i>
   <i name="ENAUG">    322.06900000</i>
   <i name="EDIFF">      0.00000100</i>
   <i type="int" name="IALGO">    68</i>
   <i type="int" name="IWAVPR">    11</i>
   <i type="int" name="NBANDS">   162</i>
   <i type="int" name="NBANDSLOW">    -1</i>
   <i type="int" name="NBANDSHIGH">    -1</i>
   <i name="NELECT">    256.00000000</i>
   <i type="int" name="TURBO">     0</i>
   <i type="int" name="IRESTART">     0</i>
   <i type="int" name="NREBOOT">     0</i>
   <i type="int" name="NMIN">     0</i>
   <i name="EREF">      0.00000000</i>
   <separator name="electronic smearing" >
    <i type="int" name="ISMEAR">     1</i>
    <i name="SIGMA">      0.20000000</i>
    <i name="KSPACING">      0.50000000</i>
    <i type="logical" name="KGAMMA"> T  </i>
    <i type="logical" name="KBLOWUP"> T  </i>
   </separator>
   <separator name="electronic projectors" >
    <i type="logical" name="LREAL"> T  </i>
    <v name="ROPT">     -0.00025000</v>
    <i type="int" name="LMAXPAW">  -100</i>
    <i type="int" name="LMAXMIX">     2</i>
    <i type="logical" name="NLSPLINE"> F  </i>
   </separator>
   <separator name="electronic startup" >
    <i type="int" name="ISTART">     0</i>
    <i type="int" name="ICHARG">     2</i>
    <i type="int" name="INIWAV">     1</i>
   </separator>
   <separator name="electronic spin" >
    <i type="int" name="ISPIN">     1</i>
    <i type="logical" name="LNONCOLLINEAR"> F  </i>
    <v name="MAGMOM">      1.00000000      1.00000000      1.00000000      1.00000000      1.00000000      1.00000000      1.00000000      1.00000000      1.00000000      1.00000000      1.00000000      1.00000000      1.00000000      1.00000000      1.00000000      1.00000000      1.00000000      1.00000000      1.00000000      1.00000000
      1.00000000      1.00000000      1.00000000      1.00000000      1.00000000      1.00000000      1.00000000      1.00000000      1.00000000      1.00000000      1.00000000      1.00000000      1.00000000      1.00000000      1.00000000      1.00000000      1.00000000      1.00000000      1.00000000      1.00000000
      1.00000000      1.00000000      1.00000000      1.00000000      1.00000000      1.00000000      1.00000000      1.00000000      1.00000000      1.00000000      1.00000000      1.00000000      1.00000000      1.00000000      1.00000000      1.00000000      1.00000000      1.00000000      1.00000000      1.00000000
      1.00000000      1.00000000      1.00000000      1.00000000</v>
    <i name="NUPDOWN">     -1.00000000</i>
    <i type="logical" name="LSORBIT"> F  </i>
    <v name="SAXIS">      0.00000000      0.00000000      1.00000000</v>
    <i type="logical" name="LSPIRAL"> F  </i>
    <v name="QSPIRAL">      0.00000000      0.00000000      0.00000000</v>
    <i type="logical" name="LZEROZ"> F  </i>
   </separator>
   <separator name="electronic exchange-correlation" >
    <i type="logical" name="LASPH"> F  </i>
   </separator>
   <separator name="electronic convergence" >
    <i type="int" name="NELM">    60</i>
    <i type="int" name="NELMDL">    -5</i>
    <i type="int" name="NELMIN">     8</i>
    <i name="ENINI">    400.00000000</i>
    <separator name="electronic convergence detail" >
     <i type="logical" name="LDIAG"> T  </i>
     <i type="logical" name="LSUBROT"> F  </i>
     <i name="WEIMIN">      0.00100000</i>
     <i name="EBREAK">      0.00000000</i>
     <i name="DEPER">      0.30000000</i>
     <i type="int" name="NRMM">     4</i>
     <i name="TIME">      0.40000000</i>
    </separator>
   </separator>
   <separator name="electronic mixer" >
    <i name="AMIX">      0.40000000</i>
    <i name="BMIX">      1.00000000</i>
    <i name="AMIN">      0.10000000</i>
    <i name="AMIX_MAG">      1.60000000</i>
    <i name="BMIX_MAG">      1.00000000</i>
    <separator name="electronic mixer details" >
     <i type="int" name="IMIX">     4</i>
     <i type="logical" name="MIXFIRST"> F  </i>
     <i type="int" name="MAXMIX">   -45</i>
     <i name="WC">    100.00000000</i>
     <i type="int" name="INIMIX">     1</i>
     <i type="int" name="MIXPRE">     1</i>
     <i type="int" name="MREMOVE">     5</i>
    </separator>
   </separator>
   <separator name="electronic dipolcorrection" >
    <i type="logical" name="LDIPOL"> F  </i>
    <i type="logical" name="LMONO"> F  </i>
    <i type="int" name="IDIPOL">     0</i>
    <i name="EPSILON">      1.00000000</i>
    <v name="DIPOL">   -100.00000000   -100.00000000   -100.00000000</v>
    <i name="EFIELD">      0.00000000</i>
    <i type="logical" name="LVACPOTAV"> F  </i>
   </separator>
  </separator>
  <separator name="grids" >
   <i type="int" name="NGX">    70</i>
   <i type="int" name="NGY">    70</i>
   <i type="int" name="NGZ">    70</i>
   <i type="int" name="NGXF">   140</i>
   <i type="int" name="NGYF">   140</i>
   <i type="int" name="NGZF">   140</i>
   <i type="logical" name="ADDGRID"> T  </i>
  </separator>
  <separator name="ionic" >
   <i type="int" name="NSW">    60</i>
   <i type="int" name="IBRION">     2</i>
   <i type="int" name="MDALGO">     0</i>
   <i type="int" name="ISIF">     2</i>
   <i name="PSTRESS">      0.00000000</i>
   <i name="EDIFFG">     -0.01000000</i>
   <i type="int" name="NFREE">     1</i>
   <i name="POTIM">      0.50000000</i>
   <i name="SMASS">     -3.00000000</i>
   <i name="SCALEE">      1.00000000</i>
  </separator>
  <separator name="ionic md" >
   <i name="TEBEG">      0.00010000</i>
   <i name="TEEND">      0.00010000</i>
   <i type="int" name="NBLOCK">     1</i>
   <i type="int" name="KBLOCK">    60</i>
   <i type="int" name="NPACO">   256</i>
   <i name="APACO">     10.00000000</i>
  </separator>
  <separator name="symmetry" >
   <i type="int" name="ISYM">     2</i>
   <i name="SYMPREC">      0.00001000</i>
  </separator>
  <separator name="dos" >
   <i type="int" name="LORBIT">     0</i>
   <v name="RWIGS">     -1.00000000</v>
   <i type="int" name="NEDOS">   301</i>
   <i name="EMIN">     10.00000000</i>
   <i name="EMAX">    -10.00000000</i>
   <i name="EFERMI">      0.00000000</i>
  </separator>
  <separator name="writing" >
   <i type="int" name="NWRITE">     2</i>
   <i type="logical" name="LWAVE"> F  </i>
   <i type="logical" name="LDOWNSAMPLE"> F  </i>
   <i type="logical" name="LCHARG"> F  </i>
   <i type="logical" name="LPARD"> F  </i>
   <i type="logical" name="LVTOT"> F  </i>
   <i type="logical" name="LVHAR"> F  </i>
   <i type="logical" name="LELF"> F  </i>
   <i type="logical" name="LOPTICS"> F  </i>
   <v name="STM">      0.00000000      0.00000000      0.00000000      0.00000000      0.00000000      0.00000000      0.00000000</v>
  </separator>
  <separator name="performance" >
   <i type="int" name="NPAR">     2</i>
   <i type="int" name="NSIM">     4</i>
   <i type="int" name="NBLK">    -1</i>
   <i type="logical" name="LPLANE"> T  </i>
   <i type="logical" name="LSCALAPACK"> T  </i>
   <i type="logical" name="LSCAAWARE"> F  </i>
   <i type="logical" name="LSCALU"> F  </i>
   <i type="logical" name="LASYNC"> F  </i>
   <i type="logical" name="LORBITALREAL"> F  </i>
  </separator>
  <separator name="miscellaneous" >
   <i type="int" name="IDIOT">     3</i>
   <i type="int" name="PHON_NSTRUCT">    -1</i>
   <i type="logical" name="LMUSIC"> F  </i>
   <v name="POMASS">     28.08500000</v>
   <v name="DARWINR">      0.00000000</v>
   <v name="DARWINV">      1.00000000</v>
   <i type="logical" name="LCORR"> T  </i>
  </separator>
  <i type="logical" name="GGA_COMPAT"> F  </i>
  <i type="logical" name="LBERRY"> F  </i>
  <i type="int" name="ICORELEVEL">     0</i>
  <i type="logical" name="LDAU"> F  </i>
  <i type="int" name="I_CONSTRAINED_M">     0</i>
  <separator name="electronic exchange-correlation" >
   <i type="string" name="GGA    ">PS</i>
   <i type="string" name="XC_C">1</i>
   <i type="int" name="VOSKOWN">     0</i>
   <i type="logical" name="LHFCALC"> F  </i>
   <i type="string" name="PRECFOCK"></i>
   <i type="logical" name="LSYMGRAD"> F  </i>
   <i type="logical" name="LHFONE"> F  </i>
   <i type="logical" name="LRHFCALC"> F  </i>
   <i type="logical" name="LTHOMAS"> F  </i>
   <i type="logical" name="LMODELHF"> F  </i>
   <i type="logical" name="LFOCKACE"> F  </i>
   <i name="ENCUT4O">     -1.00000000</i>
   <i type="int" name="EXXOEP">     0</i>
   <i type="int" name="FOURORBIT">     0</i>
   <i name="AEXX">      0.00000000</i>
   <i name="HFALPHA">      0.00000000</i>
   <i name="MCALPHA">      0.00000000</i>
   <i name="ALDAX">      1.00000000</i>
   <i name="AGGAX">      1.00000000</i>
   <i name="AMGGAX">      1.00000000</i>
   <i name="ALDAC">      1.00000000</i>
   <i name="AGGAC">      1.00000000</i>
   <i name="AMGGAC">      1.00000000</i>
   <i type="int" name="NKREDX">     1</i>
   <i type="int" name="NKREDY">     1</i>
   <i type="int" name="NKREDZ">     1</i>
   <i type="logical" name="SHIFTRED"> F  </i>
   <i type="logical" name="ODDONLY"> F  </i>
   <i type="logical" name="EVENONLY"> F  </i>
   <i type="int" name="LMAXFOCK">     0</i>
   <i type="int" name="NMAXFOCKAE">     0</i>
   <i type="logical" name="LFOCKAEDFT"> F  </i>
   <i name="HFSCREEN">      0.00000000</i>
   <i name="HFSCREENC">      0.00000000</i>
   <i type="int" name="NBANDSGWLOW">     0</i>
  </separator>
  <separator name="vdW DFT" >
   <i type="logical" name="LUSE_VDW"> F  </i>
   <i type="int" name="IVDW_NL">    -1</i>
   <i type="logical" name="LSPIN_VDW"> F  </i>
   <i name="ZAB_VDW">     -0.84910000</i>
   <i name="GAMMA_VDW">      1.39626340</i>
   <i name="ALPHA_VDW">      0.00000000</i>
   <i name="PARAM1">      0.12340000</i>
   <i name="PARAM2">      1.00000000</i>
   <i name="BPARAM">      6.30000000</i>
   <i name="CPARAM">      0.00930000</i>
  </separator>
  <separator name="model GW" >
   <i type="int" name="MODEL_GW">     0</i>
   <i name="MODEL_EPS0">     11.31319469</i>
   <i name="MODEL_ALPHA">      1.00000000</i>
  </separator>
  <separator name="linear response parameters" >
   <i type="logical" name="LEPSILON"> F  </i>
   <i type="logical" name="LRPA"> F  </i>
   <i type="logical" name="LNABLA"> F  </i>
   <i type="logical" name="LVEL"> F  </i>
   <i name="CSHIFT">      0.10000000</i>
   <i name="OMEGAMAX">     -1.00000000</i>
   <i name="DEG_THRESHOLD">      0.00200000</i>
   <i name="RTIME">     -0.10000000</i>
   <i name="WPLASMAI">      0.00000000</i>
   <v name="DFIELD">      0.00000000      0.00000000      0.00000000</v>
   <v name="WPLASMA">      0.00000000      0.00000000      0.00000000      0.00000000      0.00000000      0.00000000      0.00000000      0.00000000      0.00000000</v>
  </separator>
  <separator name="orbital magnetization" >
   <i type="logical" name="NUCIND"> F  </i>
   <v name="MAGPOS">      0.00000000      0.00000000      0.00000000</v>
   <i type="logical" name="LNICSALL"> T  </i>
   <i type="logical" name="ORBITALMAG"> F  </i>
   <i type="logical" name="LMAGBLOCH"> F  </i>
   <i type="logical" name="LCHIMAG"> F  </i>
   <i type="logical" name="LGAUGE"> T  </i>
   <i type="int" name="MAGATOM">     0</i>
   <v name="MAGDIPOL">      0.00000000      0.00000000      0.00000000</v>
   <v name="AVECCONST">      0.00000000      0.00000000      0.00000000</v>
  </separator>
  <separator name="response functions" >
   <i type="logical" name="LALL_IN_ONE"> F  </i>
   <i type="int" name="IALL_IN_ONE">    -1</i>
   <i type="int" name="NBANDS_WAVE">    -1</i>
   <i type="logical" name="LFINITE_TEMPERATURE"> F  </i>
   <i type="logical" name="LADDER"> F  </i>
   <i type="logical" name="LRPAFORCE"> F  </i>
   <i type="logical" name="LFXC"> F  </i>
   <i type="logical" name="LHARTREE"> T  </i>
   <i type="int" name="IBSE">     0</i>
   <v type="int" name="KPOINT">    -1     0     0     0</v>
   <i type="logical" name="LTCTC"> F  </i>
   <i type="logical" name="LTCTE"> F  </i>
   <i type="logical" name="LTETE"> F  </i>
   <i type="logical" name="LTRIPLET"> F  </i>
   <i type="logical" name="LFXCEPS"> F  </i>
   <i type="logical" name="LFXHEG"> F  </i>
   <i type="int" name="NATURALO">     2</i>
   <i type="logical" name="LHOLEGF"> F  </i>
   <i type="logical" name="L2ORDER"> F  </i>
   <i type="logical" name="LDMP1"> F  </i>
   <i type="logical" name="LMP2LT"> F  </i>
   <i type="logical" name="LSMP2LT"> F  </i>
   <i type="logical" name="LGWLF"> F  </i>
   <i name="ENCUTGW">     -1.60000002</i>
   <i name="ENCUTGWSOFT">     -1.60000002</i>
   <i name="ENCUTLF">     -1.00000000</i>
   <i type="logical" name="ESF_SPLINES"> F  </i>
   <i name="ESF_CONV">      0.01000000</i>
   <i type="int" name="ESF_NINTER">    15</i>
   <i type="int" name="LMAXMP2">    -1</i>
   <i name="SCISSOR">      0.00000000</i>
   <i type="int" name="NOMEGA">     0</i>
   <i type="int" name="NOMEGAR">     0</i>
   <i type="int" name="NBANDSGW">    -1</i>
   <i type="int" name="NBANDSO">    -1</i>
   <i type="int" name="NBANDSV">    -1</i>
   <i type="int" name="NELMGW">     1</i>
   <i type="int" name="NELMHF">     1</i>
   <i type="int" name="DIM">     3</i>
   <i type="int" name="IESPILON">     4</i>
   <i type="int" name="ANTIRES">     0</i>
   <i name="OMEGAMAX">    -30.00000000</i>
   <i name="OMEGAMIN">    -30.00000000</i>
   <i name="OMEGATL">   -200.00000000</i>
   <i type="int" name="OMEGAGRID">     0</i>
   <i name="CSHIFT">     -0.10000000</i>
   <i type="logical" name="LSELFENERGY"> F  </i>
   <i type="logical" name="LSPECTRAL"> F  </i>
   <i type="logical" name="LSPECTRALGW"> F  </i>
   <i type="logical" name="LSINGLES"> F  </i>
   <i type="logical" name="LFERMIGW"> F  </i>
   <i type="logical" name="ODDONLYGW"> F  </i>
   <i type="logical" name="EVENONLYGW"> F  </i>
   <i type="int" name="NKREDLFX">     1</i>
   <i type="int" name="NKREDLFY">     1</i>
   <i type="int" name="NKREDLFZ">     1</i>
   <i type="int" name="MAXMEM">  2800</i>
   <i type="int" name="TELESCOPE">     0</i>
   <i type="int" name="NTAUPAR">    -1</i>
   <i type="int" name="NOMEGAPAR">    -1</i>
   <i name="DAMP_NEWTON">      0.80000001</i>
   <i name="LAMBDA">      1.00000000</i>
  </separator>
  <separator name="External order field" >
   <i name="OFIELD_KAPPA">      0.00000000</i>
   <v name="OFIELD_K">      0.00000000      0.00000000      0.00000000</v>
   <i name="OFIELD_Q6_NEAR">      0.00000000</i>
   <i name="OFIELD_Q6_FAR">      0.00000000</i>
   <i name="OFIELD_A">      0.00000000</i>
  </separator>
  <separator name="optional k-points parameters" >
   <i type="int" name="KPOINTS_OPT_MODE">     1</i>
   <i type="logical" name="LKPOINTS_OPT"> F  </i>
  </separator>
 </parameters>
 <atominfo>
  <atoms>      64 </atoms>
  <types>       1 </types>
  <array name="atoms" >
   <dimension dim="1">ion</dimension>
   <field type="string">element</field>
   <field type="int">atomtype</field>
   <set>
    <rc><c>Si</c><c>   1</c></rc>
    <rc><c>Si</c><c>   1</c></rc>
    <rc><c>Si</c><c>   1</c></rc>
    <rc><c>Si</c><c>   1</c></rc>
    <rc><c>Si</c><c>   1</c></rc>
    <rc><c>Si</c><c>   1</c></rc>
    <rc><c>Si</c><c>   1</c></rc>
    <rc><c>Si</c><c>   1</c></rc>
    <rc><c>Si</c><c>   1</c></rc>
    <rc><c>Si</c><c>   1</c></rc>
    <rc><c>Si</c><c>   1</c></rc>
    <rc><c>Si</c><c>   1</c></rc>
    <rc><c>Si</c><c>   1</c></rc>
    <rc><c>Si</c><c>   1</c></rc>
    <rc><c>Si</c><c>   1</c></rc>
    <rc><c>Si</c><c>   1</c></rc>
    <rc><c>Si</c><c>   1</c></rc>
    <rc><c>Si</c><c>   1</c></rc>
    <rc><c>Si</c><c>   1</c></rc>
    <rc><c>Si</c><c>   1</c></rc>
    <rc><c>Si</c><c>   1</c></rc>
    <rc><c>Si</c><c>   1</c></rc>
    <rc><c>Si</c><c>   1</c></rc>
    <rc><c>Si</c><c>   1</c></rc>
    <rc><c>Si</c><c>   1</c></rc>
    <rc><c>Si</c><c>   1</c></rc>
    <rc><c>Si</c><c>   1</c></rc>
    <rc><c>Si</c><c>   1</c></rc>
    <rc><c>Si</c><c>   1</c></rc>
    <rc><c>Si</c><c>   1</c></rc>
    <rc><c>Si</c><c>   1</c></rc>
    <rc><c>Si</c><c>   1</c></rc>
    <rc><c>Si</c><c>   1</c></rc>
    <rc><c>Si</c><c>   1</c></rc>
    <rc><c>Si</c><c>   1</c></rc>
    <rc><c>Si</c><c>   1</c></rc>
    <rc><c>Si</c><c>   1</c></rc>
    <rc><c>Si</c><c>   1</c></rc>
    <rc><c>Si</c><c>   1</c></rc>
    <rc><c>Si</c><c>   1</c></rc>
    <rc><c>Si</c><c>   1</c></rc>
    <rc><c>Si</c><c>   1</c></rc>
    <rc><c>Si</c><c>   1</c></rc>
    <rc><c>Si</c><c>   1</c></rc>
    <rc><c>Si</c><c>   1</c></rc>
    <rc><c>Si</c><c>   1</c></rc>
    <rc><c>Si</c><c>   1</c></rc>
    <rc><c>Si</c><c>   1</c></rc>
    <rc><c>Si</c><c>   1</c></rc>
    <rc><c>Si</c><c>   1</c></rc>
    <rc><c>Si</c><c>   1</c></rc>
    <rc><c>Si</c><c>   1</c></rc>
    <rc><c>Si</c><c>   1</c></rc>
    <rc><c>Si</c><c>   1</c></rc>
    <rc><c>Si</c><c>   1</c></rc>
    <rc><c>Si</c><c>   1</c></rc>
    <rc><c>Si</c><c>   1</c></rc>
    <rc><c>Si</c><c>   1</c></rc>
    <rc><c>Si</c><c>   1</c></rc>
    <rc><c>Si</c><c>   1</c></rc>
    <rc><c>Si</c><c>   1</c></rc>
    <rc><c>Si</c><c>   1</c></rc>
    <rc><c>Si</c><c>   1</c></rc>
    <rc><c>Si</c><c>   1</c></rc>
   </set>
  </array>
  <array name="atomtypes" >
   <dimension dim="1">type</dimension>
   <field type="int">atomspertype</field>
   <field type="string">element</field>
   <field>mass</field>
   <field>valence</field>
   <field type="string">pseudopotential</field>
   <set>
    <rc><c>  64</c><c>Si</c><c>     28.08500000</c><c>      4.00000000</c><c>  PAW_PBE Si 05Jan2001                  </c></rc>
   </set>
  </array>
 </atominfo>
 <structure name="initialpos" >
  <crystal>
   <varray name="basis" >
    <v>      10.53991456      -0.08025301       0.00000000 </v>
    <v>      -0.08025301      10.70042058       0.00000000 </v>
    <v>       0.00000000       0.00000000      10.70042058 </v>
   </varray>
   <i name="volume">   1206.74076652 </i>
   <varray name="rec_basis" >
    <v>       0.09488285       0.00071162       0.00000000 </v>
    <v>       0.00071162       0.09345961       0.00000000 </v>
    <v>       0.00000000       0.00000000       0.09345427 </v>
   </varray>
  </crystal>
  <varray name="positions" >
   <v>       0.00000000       0.00000000       0.00000000 </v>
   <v>       0.00000000       0.00000000       0.50000000 </v>
   <v>       0.00000000       0.50000000       0.00000000 </v>
   <v>       0.00000000       0.50000000       0.50000000 </v>
   <v>       0.50000000       0.00000000       0.00000000 </v>
   <v>       0.50000000       0.00000000       0.50000000 </v>
   <v>       0.50000000       0.50000000       0.00000000 </v>
   <v>       0.50000000       0.50000000       0.50000000 </v>
   <v>       0.37500000       0.37500000       0.12500000 </v>
   <v>       0.37500000       0.37500000       0.62500000 </v>
   <v>       0.37500000       0.87500000       0.12500000 </v>
   <v>       0.37500000       0.87500000       0.62500000 </v>
   <v>       0.87500000       0.37500000       0.12500000 </v>
   <v>       0.87500000       0.37500000       0.62500000 </v>
   <v>       0.87500000       0.87500000       0.12500000 </v>
   <v>       0.87500000       0.87500000       0.62500000 </v>
   <v>       0.00000000       0.25000000       0.25000000 </v>
   <v>       0.00000000       0.25000000       0.75000000 </v>
   <v>       0.00000000       0.75000000       0.25000000 </v>
   <v>       0.00000000       0.75000000       0.75000000 </v>
   <v>       0.50000000       0.25000000       0.25000000 </v>
   <v>       0.50000000       0.25000000       0.75000000 </v>
   <v>       0.50000000       0.75000000       0.25000000 </v>
   <v>       0.50000000       0.75000000       0.75000000 </v>
   <v>       0.37500000       0.12500000       0.37500000 </v>
   <v>       0.37500000       0.12500000       0.87500000 </v>
   <v>       0.37500000       0.62500000       0.37500000 </v>
   <v>       0.37500000       0.62500000       0.87500000 </v>
   <v>       0.87500000       0.12500000       0.37500000 </v>
   <v>       0.87500000       0.12500000       0.87500000 </v>
   <v>       0.87500000       0.62500000       0.37500000 </v>
   <v>       0.87500000       0.62500000       0.87500000 </v>
   <v>       0.25000000       0.00000000       0.25000000 </v>
   <v>       0.25000000       0.00000000       0.75000000 </v>
   <v>       0.25000000       0.50000000       0.25000000 </v>
   <v>       0.25000000       0.50000000       0.75000000 </v>
   <v>       0.75000000       0.00000000       0.25000000 </v>
   <v>       0.75000000       0.00000000       0.75000000 </v>
   <v>       0.75000000       0.50000000       0.25000000 </v>
   <v>       0.75000000       0.50000000       0.75000000 </v>
   <v>       0.12500000       0.37500000       0.37500000 </v>
   <v>       0.12500000       0.37500000       0.87500000 </v>
   <v>       0.12500000       0.87500000       0.37500000 </v>
   <v>       0.12500000       0.87500000       0.87500000 </v>
   <v>       0.62500000       0.37500000       0.37500000 </v>
   <v>       0.62500000       0.37500000       0.87500000 </v>
   <v>       0.62500000       0.87500000       0.37500000 </v>
   <v>       0.62500000       0.87500000       0.87500000 </v>
   <v>       0.25000000       0.25000000       0.00000000 </v>
   <v>       0.25000000       0.25000000       0.50000000 </v>
   <v>       0.25000000       0.75000000       0.00000000 </v>
   <v>       0.25000000       0.75000000       0.50000000 </v>
   <v>       0.75000000       0.25000000       0.00000000 </v>
   <v>       0.75000000       0.25000000       0.50000000 </v>
   <v>       0.75000000       0.75000000       0.00000000 </v>
   <v>       0.75000000       0.75000000       0.50000000 </v>
   <v>       0.12500000       0.12500000       0.12500000 </v>
   <v>       0.12500000       0.12500000       0.62500000 </v>
   <v>       0.12500000       0.62500000       0.12500000 </v>
   <v>       0.12500000       0.62500000       0.62500000 </v>
   <v>       0.62500000       0.12500000       0.12500000 </v>
   <v>       0.62500000       0.12500000       0.62500000 </v>
   <v>       0.62500000       0.62500000       0.12500000 </v>
   <v>       0.62500000       0.62500000       0.62500000 </v>
  </varray>
 </structure>
 <calculation>
  <scstep>
   <time name="dav">    1.27    1.36</time>
   <time name="total">    1.46    1.57</time>
   <energy>
    <i name="alphaZ">    114.26164391 </i>
    <i name="ewald">  -7460.68505920 </i>
    <i name="hartreedc">   -324.04424102 </i>
    <i name="XCdc">   -551.47173671 </i>
    <i name="pawpsdc">   5598.62625415 </i>
    <i name="pawaedc">  -4492.17844134 </i>
    <i name="eentropy">     -0.00210181 </i>
    <i name="bandstr">   1119.88631193 </i>
    <i name="atom">   6564.79586099 </i>
    <i name="e_fr_energy">    569.18849091 </i>
    <i name="e_wo_entrp">    569.19059272 </i>
    <i name="e_0_energy">    569.18919151 </i>
   </energy>
  </scstep>
  <scstep>
   <time name="dav">    1.33    1.35</time>
   <time name="total">    1.34    1.35</time>
   <energy>
    <i name="e_fr_energy">   -309.43819217 </i>
    <i name="e_wo_entrp">   -309.46201824 </i>
    <i name="e_0_energy">   -309.44613420 </i>
   </energy>
  </scstep>
  <scstep>
   <time name="dav">    1.37    1.38</time>
   <time name="total">    1.37    1.38</time>
   <energy>
    <i name="e_fr_energy">   -372.71885127 </i>
    <i name="e_wo_entrp">   -372.72689358 </i>
    <i name="e_0_energy">   -372.72153204 </i>
   </energy>
  </scstep>
  <scstep>
   <time name="dav">    1.33    1.35</time>
   <time name="total">    1.33    1.35</time>
   <energy>
    <i name="e_fr_energy">   -374.32708170 </i>
    <i name="e_wo_entrp">   -374.33518763 </i>
    <i name="e_0_energy">   -374.32978368 </i>
   </energy>
  </scstep>
  <scstep>
   <time name="dav">    1.36    1.38</time>
   <time name="total">    1.62    1.65</time>
   <energy>
    <i name="e_fr_energy">   -374.37868470 </i>
    <i name="e_wo_entrp">   -374.38686841 </i>
    <i name="e_0_energy">   -374.38141260 </i>
   </energy>
  </scstep>
  <scstep>
   <time name="diag">    0.14    0.15</time>
   <time name="diis">    0.70    0.71</time>
   <time name="orth">    0.02    0.02</time>
   <time name="total">    1.27    1.29</time>
   <energy>
    <i name="e_fr_energy">   -368.43912442 </i>
    <i name="e_wo_entrp">   -368.46248038 </i>
    <i name="e_0_energy">   -368.44690974 </i>
   </energy>
  </scstep>
  <scstep>
   <time name="diag">    0.14    0.14</time>
   <time name="diis">    0.70    0.71</time>
   <time name="orth">    0.02    0.02</time>
   <time name="total">    1.26    1.28</time>
   <energy>
    <i name="e_fr_energy">   -365.84790884 </i>
    <i name="e_wo_entrp">   -365.87214977 </i>
    <i name="e_0_energy">   -365.85598915 </i>
   </energy>
  </scstep>
  <scstep>
   <time name="diag">    0.14    0.14</time>
   <time name="diis">    0.70    0.70</time>
   <time name="orth">    0.02    0.02</time>
   <time name="total">    1.25    1.27</time>
   <energy>
    <i name="e_fr_energy">   -365.88424791 </i>
    <i name="e_wo_entrp">   -365.91208359 </i>
    <i name="e_0_energy">   -365.89352647 </i>
   </energy>
  </scstep>
  <scstep>
   <time name="diag">    0.13    0.13</time>
   <time name="diis">    0.71    0.71</time>
   <time name="orth">    0.02    0.02</time>
   <time name="total">    1.26    1.28</time>
   <energy>
    <i name="e_fr_energy">   -365.90712271 </i>
    <i name="e_wo_entrp">   -365.93416253 </i>
    <i name="e_0_energy">   -365.91613598 </i>
   </energy>
  </scstep>
  <scstep>
   <time name="diag">    0.13    0.13</time>
   <time name="diis">    0.72    0.72</time>
   <time name="orth">    0.02    0.02</time>
   <time name="total">    1.26    1.28</time>
   <energy>
    <i name="e_fr_energy">   -365.91168207 </i>
    <i name="e_wo_entrp">   -365.93863154 </i>
    <i name="e_0_energy">   -365.92066523 </i>
   </energy>
  </scstep>
  <scstep>
   <time name="diag">    0.13    0.13</time>
   <time name="diis">    0.69    0.70</time>
   <time name="orth">    0.02    0.02</time>
   <time name="total">    1.24    1.26</time>
   <energy>
    <i name="e_fr_energy">   -365.90720100 </i>
    <i name="e_wo_entrp">   -365.93516676 </i>
    <i name="e_0_energy">   -365.91652292 </i>
   </energy>
  </scstep>
  <scstep>
   <time name="diag">    0.13    0.13</time>
   <time name="diis">    0.69    0.70</time>
   <time name="orth">    0.02    0.02</time>
   <time name="total">    1.24    1.26</time>
   <energy>
    <i name="e_fr_energy">   -365.90738862 </i>
    <i name="e_wo_entrp">   -365.93537465 </i>
    <i name="e_0_energy">   -365.91671730 </i>
   </energy>
  </scstep>
  <scstep>
   <time name="diag">    0.13    0.13</time>
   <time name="diis">    0.72    0.72</time>
   <time name="orth">    0.02    0.02</time>
   <time name="total">    1.28    1.29</time>
   <energy>
    <i name="e_fr_energy">   -365.90745369 </i>
    <i name="e_wo_entrp">   -365.93544136 </i>
    <i name="e_0_energy">   -365.91678292 </i>
   </energy>
  </scstep>
  <scstep>
   <time name="diag">    0.13    0.13</time>
   <time name="diis">    0.69    0.69</time>
   <time name="orth">    0.02    0.02</time>
   <time name="total">    1.24    1.26</time>
   <energy>
    <i name="e_fr_energy">   -365.90746680 </i>
    <i name="e_wo_entrp">   -365.93546925 </i>
    <i name="e_0_energy">   -365.91680095 </i>
   </energy>
  </scstep>
  <scstep>
   <time name="diag">    0.13    0.13</time>
   <time name="diis">    0.70    0.71</time>
   <time name="orth">    0.02    0.02</time>
   <time name="total">    1.25    1.27</time>
   <energy>
    <i name="e_fr_energy">   -365.90751542 </i>
    <i name="e_wo_entrp">   -365.93554708 </i>
    <i name="e_0_energy">   -365.91685931 </i>
   </energy>
  </scstep>
  <scstep>
   <time name="diag">    0.13    0.13</time>
   <time name="diis">    0.69    0.69</time>
   <time name="orth">    0.02    0.02</time>
   <time name="total">    1.24    1.26</time>
   <energy>
    <i name="e_fr_energy">   -365.90754793 </i>
    <i name="e_wo_entrp">   -365.93558722 </i>
    <i name="e_0_energy">   -365.91689436 </i>
   </energy>
  </scstep>
  <scstep>
   <time name="diag">    0.15    0.16</time>
   <time name="diis">    0.61    0.61</time>
   <time name="orth">    0.02    0.02</time>
   <time name="total">    1.18    1.21</time>
   <energy>
    <i name="e_fr_energy">   -365.90755082 </i>
    <i name="e_wo_entrp">   -365.93559613 </i>
    <i name="e_0_energy">   -365.91689926 </i>
   </energy>
  </scstep>
  <scstep>
   <time name="diag">    0.13    0.13</time>
   <time name="diis">    0.45    0.45</time>
   <time name="orth">    0.02    0.02</time>
   <time name="total">    0.99    1.01</time>
   <energy>
    <i name="e_fr_energy">   -365.90755206 </i>
    <i name="e_wo_entrp">   -365.93559857 </i>
    <i name="e_0_energy">   -365.91690090 </i>
   </energy>
  </scstep>
  <scstep>
   <time name="diag">    0.13    0.13</time>
   <time name="diis">    0.45    0.45</time>
   <time name="orth">    0.02    0.02</time>
   <time name="total">    0.75    0.77</time>
   <energy>
    <i name="alphaZ">    114.26164391 </i>
    <i name="ewald">  -7460.68505920 </i>
    <i name="hartreedc">   -446.02897552 </i>
    <i name="XCdc">   -530.78547115 </i>
    <i name="pawpsdc">  31646.46691312 </i>
    <i name="pawaedc"> -30548.45920871 </i>
    <i name="eentropy">      0.02804694 </i>
    <i name="bandstr">    294.49869734 </i>
    <i name="atom">   6564.79586099 </i>
    <i name="e_fr_energy">   -365.90755227 </i>
    <i name="e_wo_entrp">   -365.93559921 </i>
    <i name="e_0_energy">   -365.91690125 </i>
   </energy>
  </scstep>
  <structure>
   <crystal>
    <varray name="basis" >
     <v>      10.53991456      -0.08025301       0.00000000 </v>
     <v>      -0.08025301      10.70042058       0.00000000 </v>
     <v>       0.00000000       0.00000000      10.70042058 </v>
    </varray>
    <i name="volume">   1206.74076652 </i>
    <varray name="rec_basis" >
     <v>       0.09488285       0.00071162       0.00000000 </v>
     <v>       0.00071162       0.09345961       0.00000000 </v>
     <v>       0.00000000       0.00000000       0.09345427 </v>
    </varray>
   </crystal>
   <varray name="positions" >
    <v>       0.00000000       0.00000000       0.00000000 </v>
    <v>       0.00000000       0.00000000       0.50000000 </v>
    <v>       0.00000000       0.50000000       0.00000000 </v>
    <v>       0.00000000       0.50000000       0.50000000 </v>
    <v>       0.50000000       0.00000000       0.00000000 </v>
    <v>       0.50000000       0.00000000       0.50000000 </v>
    <v>       0.50000000       0.50000000       0.00000000 </v>
    <v>       0.50000000       0.50000000       0.50000000 </v>
    <v>       0.37500000       0.37500000       0.12500000 </v>
    <v>       0.37500000       0.37500000       0.62500000 </v>
    <v>       0.37500000       0.87500000       0.12500000 </v>
    <v>       0.37500000       0.87500000       0.62500000 </v>
    <v>       0.87500000       0.37500000       0.12500000 </v>
    <v>       0.87500000       0.37500000       0.62500000 </v>
    <v>       0.87500000       0.87500000       0.12500000 </v>
    <v>       0.87500000       0.87500000       0.62500000 </v>
    <v>       0.00000000       0.25000000       0.25000000 </v>
    <v>       0.00000000       0.25000000       0.75000000 </v>
    <v>       0.00000000       0.75000000       0.25000000 </v>
    <v>       0.00000000       0.75000000       0.75000000 </v>
    <v>       0.50000000       0.25000000       0.25000000 </v>
    <v>       0.50000000       0.25000000       0.75000000 </v>
    <v>       0.50000000       0.75000000       0.25000000 </v>
    <v>       0.50000000       0.75000000       0.75000000 </v>
    <v>       0.37500000       0.12500000       0.37500000 </v>
    <v>       0.37500000       0.12500000       0.87500000 </v>
    <v>       0.37500000       0.62500000       0.37500000 </v>
    <v>       0.37500000       0.62500000       0.87500000 </v>
    <v>       0.87500000       0.12500000       0.37500000 </v>
    <v>       0.87500000       0.12500000       0.87500000 </v>
    <v>       0.87500000       0.62500000       0.37500000 </v>
    <v>       0.87500000       0.62500000       0.87500000 </v>
    <v>       0.25000000       0.00000000       0.25000000 </v>
    <v>       0.25000000       0.00000000       0.75000000 </v>
    <v>       0.25000000       0.50000000       0.25000000 </v>
    <v>       0.25000000       0.50000000       0.75000000 </v>
    <v>       0.75000000       0.00000000       0.25000000 </v>
    <v>       0.75000000       0.00000000       0.75000000 </v>
    <v>       0.75000000       0.50000000       0.25000000 </v>
    <v>       0.75000000       0.50000000       0.75000000 </v>
    <v>       0.12500000       0.37500000       0.37500000 </v>
    <v>       0.12500000       0.37500000       0.87500000 </v>
    <v>       0.12500000       0.87500000       0.37500000 </v>
    <v>       0.12500000       0.87500000       0.87500000 </v>
    <v>       0.62500000       0.37500000       0.37500000 </v>
    <v>       0.62500000       0.37500000       0.87500000 </v>
    <v>       0.62500000       0.87500000       0.37500000 </v>
    <v>       0.62500000       0.87500000       0.87500000 </v>
    <v>       0.25000000       0.25000000       0.00000000 </v>
    <v>       0.25000000       0.25000000       0.50000000 </v>
    <v>       0.25000000       0.75000000       0.00000000 </v>
    <v>       0.25000000       0.75000000       0.50000000 </v>
    <v>       0.75000000       0.25000000       0.00000000 </v>
    <v>       0.75000000       0.25000000       0.50000000 </v>
    <v>       0.75000000       0.75000000       0.00000000 </v>
    <v>       0.75000000       0.75000000       0.50000000 </v>
    <v>       0.12500000       0.12500000       0.12500000 </v>
    <v>       0.12500000       0.12500000       0.62500000 </v>
    <v>       0.12500000       0.62500000       0.12500000 </v>
    <v>       0.12500000       0.62500000       0.62500000 </v>
    <v>       0.62500000       0.12500000       0.12500000 </v>
    <v>       0.62500000       0.12500000       0.62500000 </v>
    <v>       0.62500000       0.62500000       0.12500000 </v>
    <v>       0.62500000       0.62500000       0.62500000 </v>
   </varray>
  </structure>
  <varray name="forces" >
   <v>       0.00000000      -0.00000000      -0.19328718 </v>
   <v>       0.00000000       0.00000000      -0.19328718 </v>
   <v>      -0.00000000      -0.00000000      -0.19328718 </v>
   <v>      -0.00000000       0.00000000      -0.19328718 </v>
   <v>      -0.00000000      -0.00000000      -0.19328718 </v>
   <v>      -0.00000000       0.00000000      -0.19328718 </v>
   <v>      -0.00000000      -0.00000000      -0.19328718 </v>
   <v>      -0.00000000       0.00000000      -0.19328718 </v>
   <v>       0.00000000       0.00000000       0.19328718 </v>
   <v>       0.00000000      -0.00000000       0.19328718 </v>
   <v>       0.00000000      -0.00000000       0.19328718 </v>
   <v>       0.00000000      -0.00000000       0.19328718 </v>
   <v>       0.00000000       0.00000000       0.19328718 </v>
   <v>      -0.00000000      -0.00000000       0.19328718 </v>
   <v>      -0.00000000      -0.00000000       0.19328718 </v>
   <v>       0.00000000       0.00000000       0.19328718 </v>
   <v>       0.00000000       0.00000000      -0.19328718 </v>
   <v>       0.00000000       0.00000000      -0.19328718 </v>
   <v>       0.00000000      -0.00000000      -0.19328718 </v>
   <v>       0.00000000       0.00000000      -0.19328718 </v>
   <v>      -0.00000000      -0.00000000      -0.19328718 </v>
   <v>      -0.00000000      -0.00000000      -0.19328718 </v>
   <v>      -0.00000000       0.00000000      -0.19328718 </v>
   <v>      -0.00000000       0.00000000      -0.19328718 </v>
   <v>       0.00000000      -0.00000000       0.19328718 </v>
   <v>      -0.00000000       0.00000000       0.19328718 </v>
   <v>       0.00000000       0.00000000       0.19328718 </v>
   <v>      -0.00000000       0.00000000       0.19328718 </v>
   <v>       0.00000000      -0.00000000       0.19328718 </v>
   <v>      -0.00000000      -0.00000000       0.19328718 </v>
   <v>       0.00000000      -0.00000000       0.19328718 </v>
   <v>       0.00000000       0.00000000       0.19328718 </v>
   <v>       0.00000000      -0.00000000      -0.19328718 </v>
   <v>       0.00000000       0.00000000      -0.19328718 </v>
   <v>       0.00000000       0.00000000      -0.19328718 </v>
   <v>      -0.00000000      -0.00000000      -0.19328718 </v>
   <v>       0.00000000      -0.00000000      -0.19328718 </v>
   <v>       0.00000000       0.00000000      -0.19328718 </v>
   <v>      -0.00000000       0.00000000      -0.19328718 </v>
   <v>      -0.00000000      -0.00000000      -0.19328718 </v>
   <v>       0.00000000       0.00000000       0.19328718 </v>
   <v>      -0.00000000       0.00000000       0.19328718 </v>
   <v>      -0.00000000      -0.00000000       0.19328718 </v>
   <v>      -0.00000000      -0.00000000       0.19328718 </v>
   <v>      -0.00000000      -0.00000000       0.19328718 </v>
   <v>      -0.00000000       0.00000000       0.19328718 </v>
   <v>      -0.00000000      -0.00000000       0.19328718 </v>
   <v>      -0.00000000      -0.00000000       0.19328718 </v>
   <v>       0.00000000      -0.00000000      -0.19328718 </v>
   <v>      -0.00000000      -0.00000000      -0.19328718 </v>
   <v>      -0.00000000       0.00000000      -0.19328718 </v>
   <v>       0.00000000       0.00000000      -0.19328718 </v>
   <v>      -0.00000000      -0.00000000      -0.19328718 </v>
   <v>      -0.00000000      -0.00000000      -0.19328718 </v>
   <v>      -0.00000000       0.00000000      -0.19328718 </v>
   <v>       0.00000000       0.00000000      -0.19328718 </v>
   <v>       0.00000000      -0.00000000       0.19328718 </v>
   <v>       0.00000000       0.00000000       0.19328718 </v>
   <v>       0.00000000      -0.00000000       0.19328718 </v>
   <v>       0.00000000       0.00000000       0.19328718 </v>
   <v>      -0.00000000       0.00000000       0.19328718 </v>
   <v>      -0.00000000       0.00000000       0.19328718 </v>
   <v>      -0.00000000      -0.00000000       0.19328718 </v>
   <v>       0.00000000       0.00000000       0.19328718 </v>
  </varray>
  <varray name="stress" >
   <v>      75.79085652      18.53261348       0.00000000 </v>
   <v>      18.53261342      63.46185916       0.00000000 </v>
   <v>       0.00000000       0.00000000      63.34398170 </v>
  </varray>
  <energy>
   <i name="e_fr_energy">   -365.90755227 </i>
   <i name="e_wo_entrp">   -365.93559921 </i>
   <i name="e_0_energy">   -365.91690125 </i>
  </energy>
  <time name="totalsc">   27.56   28.05</time>
 </calculation>
 <calculation>
  <scstep>
   <time name="dav">    1.27    1.28</time>
   <time name="total">    1.66    1.67</time>
   <energy>
    <i name="alphaZ">    114.26164391 </i>
    <i name="ewald">  -7461.27690861 </i>
    <i name="hartreedc">   -445.71870809 </i>
    <i name="XCdc">   -530.79725827 </i>
    <i name="pawpsdc">  31651.12824191 </i>
    <i name="pawaedc"> -30553.12036797 </i>
    <i name="eentropy">      0.01767761 </i>
    <i name="bandstr">    294.77786346 </i>
    <i name="atom">   6564.79586099 </i>
    <i name="e_fr_energy">   -365.93195506 </i>
    <i name="e_wo_entrp">   -365.94963266 </i>
    <i name="e_0_energy">   -365.93784759 </i>
   </energy>
  </scstep>
  <scstep>
   <time name="diag">    0.13    0.13</time>
   <time name="diis">    0.70    0.70</time>
   <time name="orth">    0.02    0.02</time>
   <time name="total">    1.26    1.26</time>
   <energy>
    <i name="e_fr_energy">   -365.93936049 </i>
    <i name="e_wo_entrp">   -365.95710320 </i>
    <i name="e_0_energy">   -365.94527472 </i>
   </energy>
  </scstep>
  <scstep>
   <time name="diag">    0.13    0.13</time>
   <time name="diis">    0.69    0.70</time>
   <time name="orth">    0.02    0.02</time>
   <time name="total">    1.24    1.26</time>
   <energy>
    <i name="e_fr_energy">   -365.94021540 </i>
    <i name="e_wo_entrp">   -365.95836366 </i>
    <i name="e_0_energy">   -365.94626482 </i>
   </energy>
  </scstep>
  <scstep>
   <time name="diag">    0.13    0.13</time>
   <time name="diis">    0.70    0.70</time>
   <time name="orth">    0.02    0.02</time>
   <time name="total">    1.25    1.27</time>
   <energy>
    <i name="e_fr_energy">   -365.94018251 </i>
    <i name="e_wo_entrp">   -365.95863711 </i>
    <i name="e_0_energy">   -365.94633404 </i>
   </energy>
  </scstep>
  <scstep>
   <time name="diag">    0.13    0.13</time>
   <time name="diis">    0.72    0.72</time>
   <time name="orth">    0.02    0.02</time>
   <time name="total">    1.26    1.29</time>
   <energy>
    <i name="e_fr_energy">   -365.94019676 </i>
    <i name="e_wo_entrp">   -365.95876147 </i>
    <i name="e_0_energy">   -365.94638499 </i>
   </energy>
  </scstep>
  <scstep>
   <time name="diag">    0.13    0.13</time>
   <time name="diis">    0.74    0.75</time>
   <time name="orth">    0.02    0.02</time>
   <time name="total">    1.28    1.32</time>
   <energy>
    <i name="e_fr_energy">   -365.94020307 </i>
    <i name="e_wo_entrp">   -365.95876274 </i>
    <i name="e_0_energy">   -365.94638963 </i>
   </energy>
  </scstep>
  <scstep>
   <time name="diag">    0.13    0.13</time>
   <time name="diis">    0.60    0.63</time>
   <time name="orth">    0.02    0.02</time>
   <time name="total">    1.15    1.19</time>
   <energy>
    <i name="e_fr_energy">   -365.94020398 </i>
    <i name="e_wo_entrp">   -365.95876009 </i>
    <i name="e_0_energy">   -365.94638935 </i>
   </energy>
  </scstep>
  <scstep>
   <time name="diag">    0.13    0.13</time>
   <time name="diis">    0.48    0.48</time>
   <time name="orth">    0.02    0.02</time>
   <time name="total">    0.79    0.81</time>
   <energy>
    <i name="alphaZ">    114.26164391 </i>
    <i name="ewald">  -7461.27690861 </i>
    <i name="hartreedc">   -445.52942207 </i>
    <i name="XCdc">   -530.82531105 </i>
    <i name="pawpsdc">  31619.97886579 </i>
    <i name="pawaedc"> -30521.95551215 </i>
    <i name="eentropy">      0.01855736 </i>
    <i name="bandstr">    294.59202177 </i>
    <i name="atom">   6564.79586099 </i>
    <i name="e_fr_energy">   -365.94020406 </i>
    <i name="e_wo_entrp">   -365.95876142 </i>
    <i name="e_0_energy">   -365.94638984 </i>
   </energy>
  </scstep>
  <structure>
   <crystal>
    <varray name="basis" >
     <v>      10.53991456      -0.08025301       0.00000000 </v>
     <v>      -0.08025301      10.70042058       0.00000000 </v>
     <v>       0.00000000       0.00000000      10.70042058 </v>
    </varray>
    <i name="volume">   1206.74076652 </i>
    <varray name="rec_basis" >
     <v>       0.09488285       0.00071162       0.00000000 </v>
     <v>       0.00071162       0.09345961       0.00000000 </v>
     <v>       0.00000000       0.00000000       0.09345427 </v>
    </varray>
   </crystal>
   <varray name="positions" >
    <v>       0.00000000       1.00000000       0.99912857 </v>
    <v>       0.00000000       0.00000000       0.49912857 </v>
    <v>       1.00000000       0.50000000       0.99912857 </v>
    <v>       1.00000000       0.50000000       0.49912857 </v>
    <v>       0.50000000       1.00000000       0.99912857 </v>
    <v>       0.50000000       0.00000000       0.49912857 </v>
    <v>       0.50000000       0.50000000       0.99912857 </v>
    <v>       0.50000000       0.50000000       0.49912857 </v>
    <v>       0.37500000       0.37500000       0.12587143 </v>
    <v>       0.37500000       0.37500000       0.62587143 </v>
    <v>       0.37500000       0.87500000       0.12587143 </v>
    <v>       0.37500000       0.87500000       0.62587143 </v>
    <v>       0.87500000       0.37500000       0.12587143 </v>
    <v>       0.87500000       0.37500000       0.62587143 </v>
    <v>       0.87500000       0.87500000       0.12587143 </v>
    <v>       0.87500000       0.87500000       0.62587143 </v>
    <v>       0.00000000       0.25000000       0.24912857 </v>
    <v>       0.00000000       0.25000000       0.74912857 </v>
    <v>       0.00000000       0.75000000       0.24912857 </v>
    <v>       0.00000000       0.75000000       0.74912857 </v>
    <v>       0.50000000       0.25000000       0.24912857 </v>
    <v>       0.50000000       0.25000000       0.74912857 </v>
    <v>       0.50000000       0.75000000       0.24912857 </v>
    <v>       0.50000000       0.75000000       0.74912857 </v>
    <v>       0.37500000       0.12500000       0.37587143 </v>
    <v>       0.37500000       0.12500000       0.87587143 </v>
    <v>       0.37500000       0.62500000       0.37587143 </v>
    <v>       0.37500000       0.62500000       0.87587143 </v>
    <v>       0.87500000       0.12500000       0.37587143 </v>
    <v>       0.87500000       0.12500000       0.87587143 </v>
    <v>       0.87500000       0.62500000       0.37587143 </v>
    <v>       0.87500000       0.62500000       0.87587143 </v>
    <v>       0.25000000       1.00000000       0.24912857 </v>
    <v>       0.25000000       0.00000000       0.74912857 </v>
    <v>       0.25000000       0.50000000       0.24912857 </v>
    <v>       0.25000000       0.50000000       0.74912857 </v>
    <v>       0.75000000       1.00000000       0.24912857 </v>
    <v>       0.75000000       0.00000000       0.74912857 </v>
    <v>       0.75000000       0.50000000       0.24912857 </v>
    <v>       0.75000000       0.50000000       0.74912857 </v>
    <v>       0.12500000       0.37500000       0.37587143 </v>
    <v>       0.12500000       0.37500000       0.87587143 </v>
    <v>       0.12500000       0.87500000       0.37587143 </v>
    <v>       0.12500000       0.87500000       0.87587143 </v>
    <v>       0.62500000       0.37500000       0.37587143 </v>
    <v>       0.62500000       0.37500000       0.87587143 </v>
    <v>       0.62500000       0.87500000       0.37587143 </v>
    <v>       0.62500000       0.87500000       0.87587143 </v>
    <v>       0.25000000       0.25000000       0.99912857 </v>
    <v>       0.25000000       0.25000000       0.49912857 </v>
    <v>       0.25000000       0.75000000       0.99912857 </v>
    <v>       0.25000000       0.75000000       0.49912857 </v>
    <v>       0.75000000       0.25000000       0.99912857 </v>
    <v>       0.75000000       0.25000000       0.49912857 </v>
    <v>       0.75000000       0.75000000       0.99912857 </v>
    <v>       0.75000000       0.75000000       0.49912857 </v>
    <v>       0.12500000       0.12500000       0.12587143 </v>
    <v>       0.12500000       0.12500000       0.62587143 </v>
    <v>       0.12500000       0.62500000       0.12587143 </v>
    <v>       0.12500000       0.62500000       0.62587143 </v>
    <v>       0.62500000       0.12500000       0.12587143 </v>
    <v>       0.62500000       0.12500000       0.62587143 </v>
    <v>       0.62500000       0.62500000       0.12587143 </v>
    <v>       0.62500000       0.62500000       0.62587143 </v>
   </varray>
  </structure>
  <varray name="forces" >
   <v>      -0.00000000      -0.00000000       0.08307828 </v>
   <v>       0.00000000      -0.00000000       0.08307828 </v>
   <v>      -0.00000000      -0.00000000       0.08307828 </v>
   <v>      -0.00000000      -0.00000000       0.08307828 </v>
   <v>       0.00000000      -0.00000000       0.08307828 </v>
   <v>      -0.00000000       0.00000000       0.08307828 </v>
   <v>      -0.00000000      -0.00000000       0.08307828 </v>
   <v>       0.00000000      -0.00000000       0.08307828 </v>
   <v>       0.00000000       0.00000000      -0.08307828 </v>
   <v>      -0.00000000      -0.00000000      -0.08307828 </v>
   <v>      -0.00000000       0.00000000      -0.08307828 </v>
   <v>       0.00000000      -0.00000000      -0.08307828 </v>
   <v>       0.00000000       0.00000000      -0.08307828 </v>
   <v>      -0.00000000       0.00000000      -0.08307828 </v>
   <v>       0.00000000      -0.00000000      -0.08307828 </v>
   <v>      -0.00000000       0.00000000      -0.08307828 </v>
   <v>      -0.00000000       0.00000000       0.08307828 </v>
   <v>       0.00000000      -0.00000000       0.08307828 </v>
   <v>       0.00000000       0.00000000       0.08307828 </v>
   <v>       0.00000000       0.00000000       0.08307828 </v>
   <v>       0.00000000       0.00000000       0.08307828 </v>
   <v>      -0.00000000      -0.00000000       0.08307828 </v>
   <v>       0.00000000      -0.00000000       0.08307828 </v>
   <v>       0.00000000      -0.00000000       0.08307828 </v>
   <v>      -0.00000000      -0.00000000      -0.08307828 </v>
   <v>      -0.00000000      -0.00000000      -0.08307828 </v>
   <v>       0.00000000       0.00000000      -0.08307828 </v>
   <v>      -0.00000000       0.00000000      -0.08307828 </v>
   <v>      -0.00000000      -0.00000000      -0.08307828 </v>
   <v>      -0.00000000      -0.00000000      -0.08307828 </v>
   <v>       0.00000000       0.00000000      -0.08307828 </v>
   <v>       0.00000000       0.00000000      -0.08307828 </v>
   <v>      -0.00000000       0.00000000       0.08307828 </v>
   <v>      -0.00000000       0.00000000       0.08307828 </v>
   <v>       0.00000000      -0.00000000       0.08307828 </v>
   <v>      -0.00000000      -0.00000000       0.08307828 </v>
   <v>       0.00000000      -0.00000000       0.08307828 </v>
   <v>      -0.00000000       0.00000000       0.08307828 </v>
   <v>      -0.00000000      -0.00000000       0.08307828 </v>
   <v>      -0.00000000      -0.00000000       0.08307828 </v>
   <v>       0.00000000      -0.00000000      -0.08307828 </v>
   <v>      -0.00000000      -0.00000000      -0.08307828 </v>
   <v>       0.00000000       0.00000000      -0.08307828 </v>
   <v>      -0.00000000      -0.00000000      -0.08307828 </v>
   <v>       0.00000000       0.00000000      -0.08307828 </v>
   <v>      -0.00000000       0.00000000      -0.08307828 </v>
   <v>       0.00000000       0.00000000      -0.08307828 </v>
   <v>       0.00000000      -0.00000000      -0.08307828 </v>
   <v>       0.00000000       0.00000000       0.08307828 </v>
   <v>      -0.00000000       0.00000000       0.08307828 </v>
   <v>      -0.00000000      -0.00000000       0.08307828 </v>
   <v>       0.00000000       0.00000000       0.08307828 </v>
   <v>      -0.00000000       0.00000000       0.08307828 </v>
   <v>      -0.00000000      -0.00000000       0.08307828 </v>
   <v>      -0.00000000       0.00000000       0.08307828 </v>
   <v>       0.00000000      -0.00000000       0.08307828 </v>
   <v>      -0.00000000      -0.00000000      -0.08307828 </v>
   <v>      -0.00000000      -0.00000000      -0.08307828 </v>
   <v>       0.00000000       0.00000000      -0.08307828 </v>
   <v>       0.00000000       0.00000000      -0.08307828 </v>
   <v>      -0.00000000      -0.00000000      -0.08307828 </v>
   <v>      -0.00000000      -0.00000000      -0.08307828 </v>
   <v>       0.00000000       0.00000000      -0.08307828 </v>
   <v>       0.00000000       0.00000000      -0.08307828 </v>
  </varray>
  <varray name="stress" >
   <v>      75.11946589       8.28412586       0.00000000 </v>
   <v>       8.28412595      63.13721868       0.00000000 </v>
   <v>       0.00000000       0.00000000      62.79026545 </v>
  </varray>
  <energy>
   <i name="e_fr_energy">   -365.94020406 </i>
   <i name="e_wo_entrp">   -365.95876142 </i>
   <i name="e_0_energy">   -365.94638984 </i>
  </energy>
  <time name="totalsc">   13.57   13.76</time>
 </calculation>
 <calculation>
  <scstep>
   <time name="dav">    1.29    1.29</time>
   <time name="total">    1.68    1.68</time>
   <energy>
    <i name="alphaZ">    114.26164391 </i>
    <i name="ewald">  -7461.12862782 </i>
    <i name="hartreedc">   -445.61752481 </i>
    <i name="XCdc">   -530.82123563 </i>
    <i name="pawpsdc">  31619.76262949 </i>
    <i name="pawaedc"> -30521.73926772 </i>
    <i name="eentropy">      0.02243114 </i>
    <i name="bandstr">    294.51711091 </i>
    <i name="atom">   6564.79586099 </i>
    <i name="e_fr_energy">   -365.94697954 </i>
    <i name="e_wo_entrp">   -365.96941068 </i>
    <i name="e_0_energy">   -365.95445659 </i>
   </energy>
  </scstep>
  <scstep>
   <time name="diag">    0.13    0.13</time>
   <time name="diis">    0.69    0.69</time>
   <time name="orth">    0.02    0.02</time>
   <time name="total">    1.24    1.25</time>
   <energy>
    <i name="e_fr_energy">   -365.94764258 </i>
    <i name="e_wo_entrp">   -365.97004913 </i>
    <i name="e_0_energy">   -365.95511143 </i>
   </energy>
  </scstep>
  <scstep>
   <time name="diag">    0.13    0.13</time>
   <time name="diis">    0.70    0.70</time>
   <time name="orth">    0.02    0.02</time>
   <time name="total">    1.24    1.26</time>
   <energy>
    <i name="e_fr_energy">   -365.94771570 </i>
    <i name="e_wo_entrp">   -365.97000416 </i>
    <i name="e_0_energy">   -365.95514519 </i>
   </energy>
  </scstep>
  <scstep>
   <time name="diag">    0.13    0.13</time>
   <time name="diis">    0.70    0.70</time>
   <time name="orth">    0.02    0.02</time>
   <time name="total">    1.25    1.26</time>
   <energy>
    <i name="e_fr_energy">   -365.94771319 </i>
    <i name="e_wo_entrp">   -365.96991654 </i>
    <i name="e_0_energy">   -365.95511431 </i>
   </energy>
  </scstep>
  <scstep>
   <time name="diag">    0.13    0.13</time>
   <time name="diis">    0.72    0.72</time>
   <time name="orth">    0.02    0.02</time>
   <time name="total">    1.26    1.28</time>
   <energy>
    <i name="e_fr_energy">   -365.94771447 </i>
    <i name="e_wo_entrp">   -365.96988748 </i>
    <i name="e_0_energy">   -365.95510547 </i>
   </energy>
  </scstep>
  <scstep>
   <time name="diag">    0.13    0.13</time>
   <time name="diis">    0.56    0.56</time>
   <time name="orth">    0.02    0.02</time>
   <time name="total">    1.11    1.13</time>
   <energy>
    <i name="e_fr_energy">   -365.94771490 </i>
    <i name="e_wo_entrp">   -365.96988878 </i>
    <i name="e_0_energy">   -365.95510619 </i>
   </energy>
  </scstep>
  <scstep>
   <time name="diag">    0.13    0.13</time>
   <time name="diis">    0.45    0.47</time>
   <time name="orth">    0.02    0.02</time>
   <time name="total">    1.00    1.03</time>
   <energy>
    <i name="e_fr_energy">   -365.94771501 </i>
    <i name="e_wo_entrp">   -365.96989001 </i>
    <i name="e_0_energy">   -365.95510668 </i>
   </energy>
  </scstep>
  <scstep>
   <time name="diag">    0.13    0.13</time>
   <time name="diis">    0.41    0.41</time>
   <time name="orth">    0.02    0.02</time>
   <time name="total">    0.71    0.73</time>
   <energy>
    <i name="alphaZ">    114.26164391 </i>
    <i name="ewald">  -7461.12862782 </i>
    <i name="hartreedc">   -445.69364557 </i>
    <i name="XCdc">   -530.81104862 </i>
    <i name="pawpsdc">  31629.10747583 </i>
    <i name="pawaedc"> -30531.08867851 </i>
    <i name="eentropy">      0.02217489 </i>
    <i name="bandstr">    294.58712986 </i>
    <i name="atom">   6564.79586099 </i>
    <i name="e_fr_energy">   -365.94771504 </i>
    <i name="e_wo_entrp">   -365.96988993 </i>
    <i name="e_0_energy">   -365.95510667 </i>
   </energy>
  </scstep>
  <structure>
   <crystal>
    <varray name="basis" >
     <v>      10.53991456      -0.08025301       0.00000000 </v>
     <v>      -0.08025301      10.70042058       0.00000000 </v>
     <v>       0.00000000       0.00000000      10.70042058 </v>
    </varray>
    <i name="volume">   1206.74076652 </i>
    <varray name="rec_basis" >
     <v>       0.09488285       0.00071162       0.00000000 </v>
     <v>       0.00071162       0.09345961       0.00000000 </v>
     <v>       0.00000000       0.00000000       0.09345427 </v>
    </varray>
   </crystal>
   <varray name="positions" >
    <v>       0.00000000       0.00000000       0.99939209 </v>
    <v>       0.00000000       0.00000000       0.49939209 </v>
    <v>       0.00000000       0.50000000       0.99939209 </v>
    <v>       0.00000000       0.50000000       0.49939209 </v>
    <v>       0.50000000       0.00000000       0.99939209 </v>
    <v>       0.50000000       0.00000000       0.49939209 </v>
    <v>       0.50000000       0.50000000       0.99939209 </v>
    <v>       0.50000000       0.50000000       0.49939209 </v>
    <v>       0.37500000       0.37500000       0.12560791 </v>
    <v>       0.37500000       0.37500000       0.62560791 </v>
    <v>       0.37500000       0.87500000       0.12560791 </v>
    <v>       0.37500000       0.87500000       0.62560791 </v>
    <v>       0.87500000       0.37500000       0.12560791 </v>
    <v>       0.87500000       0.37500000       0.62560791 </v>
    <v>       0.87500000       0.87500000       0.12560791 </v>
    <v>       0.87500000       0.87500000       0.62560791 </v>
    <v>       0.00000000       0.25000000       0.24939209 </v>
    <v>       0.00000000       0.25000000       0.74939209 </v>
    <v>       0.00000000       0.75000000       0.24939209 </v>
    <v>       0.00000000       0.75000000       0.74939209 </v>
    <v>       0.50000000       0.25000000       0.24939209 </v>
    <v>       0.50000000       0.25000000       0.74939209 </v>
    <v>       0.50000000       0.75000000       0.24939209 </v>
    <v>       0.50000000       0.75000000       0.74939209 </v>
    <v>       0.37500000       0.12500000       0.37560791 </v>
    <v>       0.37500000       0.12500000       0.87560791 </v>
    <v>       0.37500000       0.62500000       0.37560791 </v>
    <v>       0.37500000       0.62500000       0.87560791 </v>
    <v>       0.87500000       0.12500000       0.37560791 </v>
    <v>       0.87500000       0.12500000       0.87560791 </v>
    <v>       0.87500000       0.62500000       0.37560791 </v>
    <v>       0.87500000       0.62500000       0.87560791 </v>
    <v>       0.25000000       0.00000000       0.24939209 </v>
    <v>       0.25000000       0.00000000       0.74939209 </v>
    <v>       0.25000000       0.50000000       0.24939209 </v>
    <v>       0.25000000       0.50000000       0.74939209 </v>
    <v>       0.75000000       0.00000000       0.24939209 </v>
    <v>       0.75000000       0.00000000       0.74939209 </v>
    <v>       0.75000000       0.50000000       0.24939209 </v>
    <v>       0.75000000       0.50000000       0.74939209 </v>
    <v>       0.12500000       0.37500000       0.37560791 </v>
    <v>       0.12500000       0.37500000       0.87560791 </v>
    <v>       0.12500000       0.87500000       0.37560791 </v>
    <v>       0.12500000       0.87500000       0.87560791 </v>
    <v>       0.62500000       0.37500000       0.37560791 </v>
    <v>       0.62500000       0.37500000       0.87560791 </v>
    <v>       0.62500000       0.87500000       0.37560791 </v>
    <v>       0.62500000       0.87500000       0.87560791 </v>
    <v>       0.25000000       0.25000000       0.99939209 </v>
    <v>       0.25000000       0.25000000       0.49939209 </v>
    <v>       0.25000000       0.75000000       0.99939209 </v>
    <v>       0.25000000       0.75000000       0.49939209 </v>
    <v>       0.75000000       0.25000000       0.99939209 </v>
    <v>       0.75000000       0.25000000       0.49939209 </v>
    <v>       0.75000000       0.75000000       0.99939209 </v>
    <v>       0.75000000       0.75000000       0.49939209 </v>
    <v>       0.12500000       0.12500000       0.12560791 </v>
    <v>       0.12500000       0.12500000       0.62560791 </v>
    <v>       0.12500000       0.62500000       0.12560791 </v>
    <v>       0.12500000       0.62500000       0.62560791 </v>
    <v>       0.62500000       0.12500000       0.12560791 </v>
    <v>       0.62500000       0.12500000       0.62560791 </v>
    <v>       0.62500000       0.62500000       0.12560791 </v>
    <v>       0.62500000       0.62500000       0.62560791 </v>
   </varray>
  </structure>
  <varray name="forces" >
   <v>      -0.00000000      -0.00000000      -0.00002975 </v>
   <v>      -0.00000000      -0.00000000      -0.00002975 </v>
   <v>      -0.00000000       0.00000000      -0.00002975 </v>
   <v>      -0.00000000       0.00000000      -0.00002975 </v>
   <v>       0.00000000      -0.00000000      -0.00002975 </v>
   <v>       0.00000000      -0.00000000      -0.00002975 </v>
   <v>       0.00000000       0.00000000      -0.00002975 </v>
   <v>       0.00000000       0.00000000      -0.00002975 </v>
   <v>       0.00000000       0.00000000       0.00002975 </v>
   <v>       0.00000000      -0.00000000       0.00002975 </v>
   <v>       0.00000000      -0.00000000       0.00002975 </v>
   <v>      -0.00000000       0.00000000       0.00002975 </v>
   <v>      -0.00000000       0.00000000       0.00002975 </v>
   <v>       0.00000000       0.00000000       0.00002975 </v>
   <v>       0.00000000       0.00000000       0.00002975 </v>
   <v>       0.00000000       0.00000000       0.00002975 </v>
   <v>      -0.00000000      -0.00000000      -0.00002975 </v>
   <v>      -0.00000000      -0.00000000      -0.00002975 </v>
   <v>       0.00000000      -0.00000000      -0.00002975 </v>
   <v>       0.00000000       0.00000000      -0.00002975 </v>
   <v>       0.00000000       0.00000000      -0.00002975 </v>
   <v>      -0.00000000       0.00000000      -0.00002975 </v>
   <v>      -0.00000000      -0.00000000      -0.00002975 </v>
   <v>      -0.00000000       0.00000000      -0.00002975 </v>
   <v>       0.00000000      -0.00000000       0.00002975 </v>
   <v>      -0.00000000       0.00000000       0.00002975 </v>
   <v>       0.00000000       0.00000000       0.00002975 </v>
   <v>      -0.00000000       0.00000000       0.00002975 </v>
   <v>       0.00000000      -0.00000000       0.00002975 </v>
   <v>       0.00000000      -0.00000000       0.00002975 </v>
   <v>      -0.00000000       0.00000000       0.00002975 </v>
   <v>      -0.00000000       0.00000000       0.00002975 </v>
   <v>       0.00000000      -0.00000000      -0.00002975 </v>
   <v>      -0.00000000      -0.00000000      -0.00002975 </v>
   <v>      -0.00000000       0.00000000      -0.00002975 </v>
   <v>       0.00000000       0.00000000      -0.00002975 </v>
   <v>       0.00000000      -0.00000000      -0.00002975 </v>
   <v>      -0.00000000      -0.00000000      -0.00002975 </v>
   <v>       0.00000000       0.00000000      -0.00002975 </v>
   <v>      -0.00000000       0.00000000      -0.00002975 </v>
   <v>      -0.00000000       0.00000000       0.00002975 </v>
   <v>      -0.00000000       0.00000000       0.00002975 </v>
   <v>      -0.00000000       0.00000000       0.00002975 </v>
   <v>      -0.00000000       0.00000000       0.00002975 </v>
   <v>       0.00000000       0.00000000       0.00002975 </v>
   <v>       0.00000000      -0.00000000       0.00002975 </v>
   <v>       0.00000000      -0.00000000       0.00002975 </v>
   <v>       0.00000000       0.00000000       0.00002975 </v>
   <v>       0.00000000       0.00000000      -0.00002975 </v>
   <v>      -0.00000000       0.00000000      -0.00002975 </v>
   <v>      -0.00000000       0.00000000      -0.00002975 </v>
   <v>       0.00000000      -0.00000000      -0.00002975 </v>
   <v>      -0.00000000       0.00000000      -0.00002975 </v>
   <v>      -0.00000000      -0.00000000      -0.00002975 </v>
   <v>      -0.00000000       0.00000000      -0.00002975 </v>
   <v>       0.00000000      -0.00000000      -0.00002975 </v>
   <v>       0.00000000      -0.00000000       0.00002975 </v>
   <v>       0.00000000      -0.00000000       0.00002975 </v>
   <v>      -0.00000000       0.00000000       0.00002975 </v>
   <v>       0.00000000       0.00000000       0.00002975 </v>
   <v>       0.00000000      -0.00000000       0.00002975 </v>
   <v>       0.00000000      -0.00000000       0.00002975 </v>
   <v>      -0.00000000      -0.00000000       0.00002975 </v>
   <v>      -0.00000000       0.00000000       0.00002975 </v>
  </varray>
  <varray name="stress" >
   <v>      75.30269764      11.40387057       0.00000000 </v>
   <v>      11.40387068      63.18301068       0.00000000 </v>
   <v>       0.00000000       0.00000000      62.96006423 </v>
  </varray>
  <energy>
   <i name="e_fr_energy">   -365.94771504 </i>
   <i name="e_wo_entrp">   -365.96988993 </i>
   <i name="e_0_energy">   -365.95510667 </i>
  </energy>
  <time name="totalsc">   12.92   13.22</time>
  <eigenvalues>
   <array>
    <dimension dim="1">band</dimension>
    <dimension dim="2">kpoint</dimension>
    <dimension dim="3">spin</dimension>
    <field>eigene</field>
    <field>occ</field>
    <set>
     <set comment="spin 1">
      <set comment="kpoint 1">
       <r>   -5.9991    1.0000 </r>
       <r>   -4.8658    1.0000 </r>
       <r>   -4.8658    1.0000 </r>
       <r>   -4.8655    1.0000 </r>
       <r>   -4.8655    1.0000 </r>
       <r>   -4.8355    1.0000 </r>
       <r>   -4.8355    1.0000 </r>
       <r>   -3.8574    1.0000 </r>
       <r>   -3.8574    1.0000 </r>
       <r>   -3.8422    1.0000 </r>
       <r>   -3.8422    1.0000 </r>
       <r>   -3.8422    1.0000 </r>
       <r>   -3.8422    1.0000 </r>
       <r>   -3.8204    1.0000 </r>
       <r>   -3.8204    1.0000 </r>
       <r>   -3.8204    1.0000 </r>
       <r>   -3.8204    1.0000 </r>
       <r>   -3.7828    1.0000 </r>
       <r>   -3.7828    1.0000 </r>
       <r>   -3.5298    1.0000 </r>
       <r>   -3.5298    1.0000 </r>
       <r>   -3.4525    1.0000 </r>
       <r>   -3.4525    1.0000 </r>
       <r>   -1.6689    1.0000 </r>
       <r>   -1.6467    1.0000 </r>
       <r>   -1.6467    1.0000 </r>
       <r>   -1.6270    1.0000 </r>
       <r>   -1.5488    1.0000 </r>
       <r>   -1.5488    1.0000 </r>
       <r>   -1.4765    1.0000 </r>
       <r>   -1.4765    1.0000 </r>
       <r>   -1.4431    1.0000 </r>
       <r>   -1.4431    1.0000 </r>
       <r>   -1.4038    1.0000 </r>
       <r>   -1.4038    1.0000 </r>
       <r>   -1.4038    1.0000 </r>
       <r>   -1.4038    1.0000 </r>
       <r>   -1.3966    1.0000 </r>
       <r>   -1.3966    1.0000 </r>
       <r>   -1.3659    1.0000 </r>
       <r>   -1.3659    1.0000 </r>
       <r>   -0.9154    1.0000 </r>
       <r>   -0.9154    1.0000 </r>
       <r>   -0.8742    1.0000 </r>
       <r>   -0.8742    1.0000 </r>
       <r>    0.7716    1.0000 </r>
       <r>    0.7716    1.0000 </r>
       <r>    0.7859    1.0000 </r>
       <r>    0.7859    1.0000 </r>
       <r>    0.7859    1.0000 </r>
       <r>    0.7859    1.0000 </r>
       <r>    0.8017    1.0000 </r>
       <r>    0.8017    1.0000 </r>
       <r>    0.8453    1.0000 </r>
       <r>    0.8453    1.0000 </r>
       <r>    0.8453    1.0000 </r>
       <r>    0.8453    1.0000 </r>
       <r>    2.2190    1.0000 </r>
       <r>    2.2190    1.0000 </r>
       <r>    2.2285    1.0000 </r>
       <r>    2.2285    1.0000 </r>
       <r>    2.2497    1.0000 </r>
       <r>    2.2497    1.0000 </r>
       <r>    2.2497    1.0000 </r>
       <r>    2.2497    1.0000 </r>
       <r>    2.2589    1.0000 </r>
       <r>    2.2589    1.0000 </r>
       <r>    2.2713    1.0000 </r>
       <r>    2.2713    1.0000 </r>
       <r>    2.3310    1.0000 </r>
       <r>    2.3310    1.0000 </r>
       <r>    2.3475    1.0000 </r>
       <r>    2.3475    1.0000 </r>
       <r>    2.3475    1.0000 </r>
       <r>    2.3475    1.0000 </r>
       <r>    2.3591    1.0000 </r>
       <r>    2.3591    1.0000 </r>
       <r>    2.4366    1.0000 </r>
       <r>    2.4366    1.0000 </r>
       <r>    2.4366    1.0000 </r>
       <r>    2.4366    1.0000 </r>
       <r>    2.8643    1.0000 </r>
       <r>    2.8643    1.0000 </r>
       <r>    2.8668    1.0000 </r>
       <r>    2.8668    1.0000 </r>
       <r>    2.9800    1.0000 </r>
       <r>    2.9800    1.0000 </r>
       <r>    3.3004    1.0000 </r>
       <r>    3.3004    1.0000 </r>
       <r>    3.3139    1.0000 </r>
       <r>    3.4231    1.0000 </r>
       <r>    3.4231    1.0000 </r>
       <r>    3.5348    1.0000 </r>
       <r>    4.3204    1.0000 </r>
       <r>    4.3204    1.0000 </r>
       <r>    4.3307    1.0000 </r>
       <r>    4.3307    1.0000 </r>
       <r>    4.3321    1.0000 </r>
       <r>    4.3321    1.0000 </r>
       <r>    4.4087    1.0000 </r>
       <r>    4.4087    1.0000 </r>
       <r>    4.4434    1.0000 </r>
       <r>    4.4434    1.0000 </r>
       <r>    4.5341    1.0000 </r>
       <r>    4.5341    1.0000 </r>
       <r>    4.9271    1.0000 </r>
       <r>    4.9271    1.0000 </r>
       <r>    4.9271    1.0000 </r>
       <r>    4.9271    1.0000 </r>
       <r>    4.9749    1.0000 </r>
       <r>    4.9749    1.0000 </r>
       <r>    5.0486    1.0000 </r>
       <r>    5.0486    1.0000 </r>
       <r>    5.0529    1.0000 </r>
       <r>    5.0529    1.0000 </r>
       <r>    5.0529    1.0000 </r>
       <r>    5.0529    1.0000 </r>
       <r>    5.1115    1.0000 </r>
       <r>    5.1115    1.0000 </r>
       <r>    5.1347    1.0000 </r>
       <r>    5.1347    1.0000 </r>
       <r>    5.1825    1.0000 </r>
       <r>    5.1825    1.0000 </r>
       <r>    5.3047    1.0000 </r>
       <r>    5.3047    1.0000 </r>
       <r>    6.3333    1.0288 </r>
       <r>    6.3802    1.0354 </r>
       <r>    6.5405    0.8347 </r>
       <r>    6.7977   -0.0011 </r>
       <r>    6.7977   -0.0011 </r>
       <r>    6.8020   -0.0055 </r>
       <r>    6.9227   -0.0289 </r>
       <r>    6.9227   -0.0289 </r>
       <r>    7.0448   -0.0061 </r>
       <r>    7.3090   -0.0000 </r>
       <r>    7.3090   -0.0000 </r>
       <r>    7.4288   -0.0000 </r>
       <r>    7.4288   -0.0000 </r>
       <r>    7.4327   -0.0000 </r>
       <r>    7.4327   -0.0000 </r>
       <r>    8.0076   -0.0000 </r>
       <r>    8.0076   -0.0000 </r>
       <r>    8.1586   -0.0000 </r>
       <r>    8.1586   -0.0000 </r>
       <r>    8.7081   -0.0000 </r>
       <r>    8.7081   -0.0000 </r>
       <r>    8.7081   -0.0000 </r>
       <r>    8.7081   -0.0000 </r>
       <r>    8.7690   -0.0000 </r>
       <r>    8.7691   -0.0000 </r>
       <r>    8.8537   -0.0000 </r>
       <r>    8.8537   -0.0000 </r>
       <r>    8.8537   -0.0000 </r>
       <r>    8.8537   -0.0000 </r>
       <r>    8.8587   -0.0000 </r>
       <r>    8.9402   -0.0000 </r>
       <r>    8.9402   -0.0000 </r>
       <r>    8.9572   -0.0000 </r>
       <r>    9.0399   -0.0000 </r>
       <r>    9.4000   -0.0000 </r>
       <r>    9.4079   -0.0000 </r>
       <r>    9.4166   -0.0000 </r>
      </set>
      <set comment="kpoint 2">
       <r>   -5.7055    1.0000 </r>
       <r>   -5.7055    1.0000 </r>
       <r>   -4.6160    1.0000 </r>
       <r>   -4.6160    1.0000 </r>
       <r>   -4.5969    1.0000 </r>
       <r>   -4.5969    1.0000 </r>
       <r>   -4.5969    1.0000 </r>
       <r>   -4.5969    1.0000 </r>
       <r>   -4.5772    1.0000 </r>
       <r>   -4.5772    1.0000 </r>
       <r>   -3.7106    1.0000 </r>
       <r>   -3.7106    1.0000 </r>
       <r>   -3.7106    1.0000 </r>
       <r>   -3.7106    1.0000 </r>
       <r>   -3.6633    1.0000 </r>
       <r>   -3.6633    1.0000 </r>
       <r>   -3.6633    1.0000 </r>
       <r>   -3.6633    1.0000 </r>
       <r>   -3.4249    1.0000 </r>
       <r>   -3.4249    1.0000 </r>
       <r>   -2.7062    1.0000 </r>
       <r>   -2.7062    1.0000 </r>
       <r>   -2.6579    1.0000 </r>
       <r>   -2.6579    1.0000 </r>
       <r>   -2.6579    1.0000 </r>
       <r>   -2.6579    1.0000 </r>
       <r>   -2.6092    1.0000 </r>
       <r>   -2.6092    1.0000 </r>
       <r>   -1.5781    1.0000 </r>
       <r>   -1.5781    1.0000 </r>
       <r>   -1.5763    1.0000 </r>
       <r>   -1.5763    1.0000 </r>
       <r>   -1.5215    1.0000 </r>
       <r>   -1.5215    1.0000 </r>
       <r>   -1.5174    1.0000 </r>
       <r>   -1.5174    1.0000 </r>
       <r>   -0.3280    1.0000 </r>
       <r>   -0.3280    1.0000 </r>
       <r>   -0.3185    1.0000 </r>
       <r>   -0.3185    1.0000 </r>
       <r>   -0.3185    1.0000 </r>
       <r>   -0.3185    1.0000 </r>
       <r>   -0.3113    1.0000 </r>
       <r>   -0.3113    1.0000 </r>
       <r>   -0.2467    1.0000 </r>
       <r>   -0.2467    1.0000 </r>
       <r>   -0.2467    1.0000 </r>
       <r>   -0.2467    1.0000 </r>
       <r>   -0.1833    1.0000 </r>
       <r>   -0.1833    1.0000 </r>
       <r>   -0.1833    1.0000 </r>
       <r>   -0.1833    1.0000 </r>
       <r>    0.6544    1.0000 </r>
       <r>    0.6544    1.0000 </r>
       <r>    1.8147    1.0000 </r>
       <r>    1.8147    1.0000 </r>
       <r>    1.8223    1.0000 </r>
       <r>    1.8223    1.0000 </r>
       <r>    1.8223    1.0000 </r>
       <r>    1.8223    1.0000 </r>
       <r>    1.8288    1.0000 </r>
       <r>    1.8288    1.0000 </r>
       <r>    2.0153    1.0000 </r>
       <r>    2.0153    1.0000 </r>
       <r>    2.0347    1.0000 </r>
       <r>    2.0347    1.0000 </r>
       <r>    2.0347    1.0000 </r>
       <r>    2.0347    1.0000 </r>
       <r>    2.0613    1.0000 </r>
       <r>    2.0613    1.0000 </r>
       <r>    2.6764    1.0000 </r>
       <r>    2.6764    1.0000 </r>
       <r>    2.7414    1.0000 </r>
       <r>    2.7414    1.0000 </r>
       <r>    2.7567    1.0000 </r>
       <r>    2.7567    1.0000 </r>
       <r>    2.8237    1.0000 </r>
       <r>    2.8237    1.0000 </r>
       <r>    3.4630    1.0000 </r>
       <r>    3.4630    1.0000 </r>
       <r>    3.4898    1.0000 </r>
       <r>    3.4898    1.0000 </r>
       <r>    3.4898    1.0000 </r>
       <r>    3.4898    1.0000 </r>
       <r>    3.5097    1.0000 </r>
       <r>    3.5097    1.0000 </r>
       <r>    3.5630    1.0000 </r>
       <r>    3.5630    1.0000 </r>
       <r>    3.5634    1.0000 </r>
       <r>    3.5634    1.0000 </r>
       <r>    3.6338    1.0000 </r>
       <r>    3.6338    1.0000 </r>
       <r>    3.6920    1.0000 </r>
       <r>    3.6920    1.0000 </r>
       <r>    3.6920    1.0000 </r>
       <r>    3.6920    1.0000 </r>
       <r>    3.7517    1.0000 </r>
       <r>    3.7517    1.0000 </r>
       <r>    3.8323    1.0000 </r>
       <r>    3.8323    1.0000 </r>
       <r>    3.8323    1.0000 </r>
       <r>    3.8323    1.0000 </r>
       <r>    3.9523    1.0000 </r>
       <r>    3.9523    1.0000 </r>
       <r>    3.9523    1.0000 </r>
       <r>    3.9523    1.0000 </r>
       <r>    4.8732    1.0000 </r>
       <r>    4.8732    1.0000 </r>
       <r>    4.9142    1.0000 </r>
       <r>    4.9142    1.0000 </r>
       <r>    4.9142    1.0000 </r>
       <r>    4.9142    1.0000 </r>
       <r>    4.9576    1.0000 </r>
       <r>    4.9576    1.0000 </r>
       <r>    4.9823    1.0000 </r>
       <r>    4.9823    1.0000 </r>
       <r>    4.9823    1.0000 </r>
       <r>    4.9823    1.0000 </r>
       <r>    5.0236    1.0000 </r>
       <r>    5.0236    1.0000 </r>
       <r>    5.0236    1.0000 </r>
       <r>    5.0236    1.0000 </r>
       <r>    5.1815    1.0000 </r>
       <r>    5.1815    1.0000 </r>
       <r>    5.4961    1.0000 </r>
       <r>    5.4961    1.0000 </r>
       <r>    5.5154    1.0000 </r>
       <r>    5.5154    1.0000 </r>
       <r>    6.7238    0.1425 </r>
       <r>    6.7238    0.1425 </r>
       <r>    7.6771   -0.0000 </r>
       <r>    7.6771   -0.0000 </r>
       <r>    8.1716   -0.0000 </r>
       <r>    8.1716   -0.0000 </r>
       <r>    8.2960   -0.0000 </r>
       <r>    8.2960   -0.0000 </r>
       <r>    8.3029   -0.0000 </r>
       <r>    8.3029   -0.0000 </r>
       <r>    8.3376   -0.0000 </r>
       <r>    8.3376   -0.0000 </r>
       <r>    8.4704   -0.0000 </r>
       <r>    8.4704   -0.0000 </r>
       <r>    8.6966   -0.0000 </r>
       <r>    8.6966   -0.0000 </r>
       <r>    8.6966   -0.0000 </r>
       <r>    8.6966   -0.0000 </r>
       <r>    8.7798   -0.0000 </r>
       <r>    8.7798   -0.0000 </r>
       <r>    8.7798   -0.0000 </r>
       <r>    8.7799   -0.0000 </r>
       <r>    8.8240   -0.0000 </r>
       <r>    8.8240   -0.0000 </r>
       <r>    8.8627   -0.0000 </r>
       <r>    8.8627   -0.0000 </r>
       <r>    8.8629   -0.0000 </r>
[...]
      </set>
     </set>
    </set>
   </array>
  </eigenvalues>
  <separator name="orbital magnetization" >
   <v name="MAGDIPOLOUT">      0.00000000      0.00000000      0.00000000</v>
  </separator>
  <dos>
   <i name="efermi">      6.62827916 </i>
   <total>
    <array>
     <dimension dim="1">gridpoints</dimension>
     <dimension dim="2">spin</dimension>
     <field>energy</field>
     <field>total</field>
     <field>integrated</field>
     <set>
      <set comment="spin 1">
       <r>    -7.9991     0.0000     0.0000 </r>
       <r>    -7.9328     0.0000     0.0000 </r>
       <r>    -7.8665     0.0000     0.0000 </r>
       <r>    -7.8002     0.0000     0.0000 </r>
       <r>    -7.7339     0.0000     0.0000 </r>
       <r>    -7.6676     0.0000     0.0000 </r>
       <r>    -7.6014    -0.0000    -0.0000 </r>
       <r>    -7.5351    -0.0000    -0.0000 </r>
       <r>    -7.4688    -0.0000    -0.0000 </r>
       <r>    -7.4025    -0.0000    -0.0000 </r>
       <r>    -7.3362    -0.0000    -0.0000 </r>
       <r>    -7.2699    -0.0000    -0.0000 </r>
       <r>    -7.2037    -0.0000    -0.0000 </r>
       <r>    -7.1374    -0.0000    -0.0000 </r>
       <r>    -7.0711    -0.0000    -0.0000 </r>
       <r>    -7.0048    -0.0000    -0.0000 </r>
       <r>    -6.9385    -0.0000    -0.0000 </r>
       <r>    -6.8722    -0.0000    -0.0000 </r>
       <r>    -6.8060    -0.0000    -0.0000 </r>
       <r>    -6.7397    -0.0000    -0.0000 </r>
       <r>    -6.6734    -0.0000    -0.0000 </r>
       <r>    -6.6071    -0.0002    -0.0000 </r>
       <r>    -6.5408    -0.0014    -0.0001 </r>
       <r>    -6.4745    -0.0058    -0.0005 </r>
       <r>    -6.4083    -0.0186    -0.0017 </r>
       <r>    -6.3420    -0.0424    -0.0045 </r>
       <r>    -6.2757    -0.0591    -0.0085 </r>
       <r>    -6.2094    -0.0115    -0.0092 </r>
       <r>    -6.1431     0.1606     0.0014 </r>
       <r>    -6.0768     0.4192     0.0292 </r>
       <r>    -6.0105     0.6288     0.0709 </r>
       <r>    -5.9443     0.8305     0.1260 </r>
       <r>    -5.8780     1.4615     0.2228 </r>
       <r>    -5.8117     2.8923     0.4145 </r>
       <r>    -5.7454     4.6296     0.7214 </r>
       <r>    -5.6791     5.6621     1.0967 </r>
       <r>    -5.6128     6.0438     1.4973 </r>
       <r>    -5.5466     7.1977     1.9744 </r>
       <r>    -5.4803     9.6939     2.6170 </r>
       <r>    -5.4140    11.7494     3.3958 </r>
       <r>    -5.3477    11.4313     4.1535 </r>
       <r>    -5.2814     9.4699     4.7812 </r>
       <r>    -5.2151     8.0797     5.3167 </r>
       <r>    -5.1489     7.7145     5.8281 </r>
       <r>    -5.0826     7.0095     6.2927 </r>
       <r>    -5.0163     5.4862     6.6563 </r>
       <r>    -4.9500     4.2566     6.9385 </r>
       <r>    -4.8837     4.1724     7.2150 </r>
       <r>    -4.8174     5.3025     7.5665 </r>
       <r>    -4.7512     8.3354     8.1190 </r>
       <r>    -4.6849    14.0837     9.0525 </r>
       <r>    -4.6186    20.8773    10.4364 </r>
       <r>    -4.5523    25.1877    12.1059 </r>
       <r>    -4.4860    26.0928    13.8355 </r>
       <r>    -4.4197    26.0682    15.5634 </r>
       <r>    -4.3534    25.9984    17.2866 </r>
       <r>    -4.2872    23.1150    18.8188 </r>
       <r>    -4.2209    15.7210    19.8608 </r>
       <r>    -4.1546     6.6256    20.3000 </r>
       <r>    -4.0883     0.2105    20.3140 </r>
       <r>    -4.0220    -1.4155    20.2201 </r>
       <r>    -3.9557     1.5874    20.3254 </r>
       <r>    -3.8895     8.3133    20.8764 </r>
       <r>    -3.8232    17.2224    22.0180 </r>
       <r>    -3.7569    25.5904    23.7142 </r>
       <r>    -3.6906    30.0779    25.7079 </r>
       <r>    -3.6243    28.7317    27.6123 </r>
       <r>    -3.5580    22.8047    29.1239 </r>
       <r>    -3.4918    16.2491    30.2010 </r>
       <r>    -3.4255    13.2189    31.0772 </r>
       <r>    -3.3592    15.8897    32.1304 </r>
       <r>    -3.2929    23.4334    33.6837 </r>
       <r>    -3.2266    32.2402    35.8207 </r>
       <r>    -3.1603    38.1433    38.3490 </r>
       <r>    -3.0941    39.3745    40.9589 </r>
       <r>    -3.0278    37.1013    43.4181 </r>
       <r>    -2.9615    33.2456    45.6217 </r>
       <r>    -2.8952    28.9723    47.5421 </r>
       <r>    -2.8289    25.5425    49.2352 </r>
       <r>    -2.7626    24.4379    50.8550 </r>
       <r>    -2.6963    24.9006    52.5055 </r>
       <r>    -2.6301    23.3213    54.0514 </r>
       <r>    -2.5638    17.3048    55.1984 </r>
       <r>    -2.4975     8.8876    55.7875 </r>
       <r>    -2.4312     2.0958    55.9264 </r>
       <r>    -2.3649    -1.1996    55.8469 </r>
       <r>    -2.2986    -1.7283    55.7324 </r>
       <r>    -2.2324    -0.4834    55.7003 </r>
       <r>    -2.1661     2.4733    55.8643 </r>
       <r>    -2.0998     6.8442    56.3179 </r>
       <r>    -2.0335    10.7030    57.0273 </r>
       <r>    -1.9672    11.3926    57.7825 </r>
       <r>    -1.9009     8.2138    58.3269 </r>
       <r>    -1.8347     3.6722    58.5703 </r>
       <r>    -1.7684     1.7925    58.6892 </r>
       <r>    -1.7021     5.4549    59.0507 </r>
       <r>    -1.6358    14.6700    60.0231 </r>
       <r>    -1.5695    26.0422    61.7493 </r>
       <r>    -1.5032    33.9764    64.0014 </r>
       <r>    -1.4370    34.0112    66.2558 </r>
       <r>    -1.3707    26.0979    67.9857 </r>
       <r>    -1.3044    14.6853    68.9591 </r>
       <r>    -1.2381     5.5239    69.3252 </r>
       <r>    -1.1718     2.1497    69.4677 </r>
       <r>    -1.1055     4.4212    69.7608 </r>
       <r>    -1.0392     9.2032    70.3708 </r>
       <r>    -0.9730    12.5027    71.1995 </r>
       <r>    -0.9067    12.3403    72.0175 </r>
       <r>    -0.8404    10.5950    72.7197 </r>
       <r>    -0.7741    11.4081    73.4759 </r>
       <r>    -0.7078    16.3486    74.5596 </r>
       <r>    -0.6415    21.4183    75.9793 </r>
       <r>    -0.5753    21.0906    77.3772 </r>
       <r>    -0.5090    16.0008    78.4378 </r>
       <r>    -0.4427    14.2581    79.3829 </r>
       <r>    -0.3764    23.3618    80.9314 </r>
       <r>    -0.3101    41.5708    83.6869 </r>
       <r>    -0.2438    58.0904    87.5374 </r>
       <r>    -0.1776    61.6869    91.6262 </r>
       <r>    -0.1113    49.5509    94.9106 </r>
       <r>    -0.0450    28.7558    96.8167 </r>
       <r>     0.0213     9.8764    97.4713 </r>
       <r>     0.0876    -0.3280    97.4496 </r>
       <r>     0.1539    -0.7794    97.3979 </r>
       <r>     0.2201     6.1623    97.8064 </r>
       <r>     0.2864    16.1052    98.8739 </r>
       <r>     0.3527    23.2860   100.4174 </r>
       <r>     0.4190    23.5628   101.9792 </r>
       <r>     0.4853    17.7200   103.1538 </r>
       <r>     0.5516    10.4487   103.8464 </r>
       <r>     0.6179     6.2482   104.2605 </r>
       <r>     0.6841     7.1656   104.7355 </r>
       <r>     0.7504    13.0113   105.5979 </r>
       <r>     0.8167    21.5440   107.0259 </r>
       <r>     0.8830    28.6135   108.9226 </r>
       <r>     0.9493    30.0091   110.9117 </r>
       <r>     1.0156    24.4652   112.5333 </r>
       <r>     1.0818    14.8487   113.5176 </r>
       <r>     1.1481     5.8812   113.9074 </r>
       <r>     1.2144     0.5569   113.9443 </r>
       <r>     1.2807    -1.2396   113.8621 </r>
       <r>     1.3470    -1.3267   113.7742 </r>
       <r>     1.4133    -1.2892   113.6888 </r>
       <r>     1.4795    -1.5701   113.5847 </r>
       <r>     1.5458    -1.2460   113.5021 </r>
       <r>     1.6121     1.7836   113.6203 </r>
       <r>     1.6784     9.3278   114.2386 </r>
       <r>     1.7447    20.3443   115.5871 </r>
       <r>     1.8110    30.3722   117.6003 </r>
       <r>     1.8772    35.1802   119.9322 </r>
       <r>     1.9435    34.7895   122.2382 </r>
       <r>     2.0098    32.3253   124.3808 </r>
       <r>     2.0761    29.8627   126.3602 </r>
       <r>     2.1424    27.7163   128.1974 </r>
       <r>     2.2087    26.3670   129.9451 </r>
       <r>     2.2750    25.8790   131.6604 </r>
       <r>     2.3412    24.4245   133.2794 </r>
       <r>     2.4075    20.6680   134.6494 </r>
       <r>     2.4738    17.7400   135.8252 </r>
       <r>     2.5401    22.4543   137.3136 </r>
       <r>     2.6064    38.8268   139.8872 </r>
       <r>     2.6727    62.0640   144.0010 </r>
       <r>     2.7389    79.8228   149.2920 </r>
       <r>     2.8052    80.9075   154.6549 </r>
       <r>     2.8715    63.9763   158.8955 </r>
       <r>     2.9378    38.1536   161.4245 </r>
       <r>     3.0041    15.2077   162.4325 </r>
       <r>     3.0704     1.3342   162.5209 </r>
       <r>     3.1366    -4.0528   162.2523 </r>
       <r>     3.2029    -3.4848   162.0213 </r>
       <r>     3.2692     2.8990   162.2135 </r>
       <r>     3.3355    16.6178   163.3150 </r>
       <r>     3.4018    36.3591   165.7250 </r>
       <r>     3.4681    55.8418   169.4264 </r>
       <r>     3.5343    68.0709   173.9384 </r>
       <r>     3.6006    71.1759   178.6562 </r>
       <r>     3.6669    68.1125   183.1710 </r>
       <r>     3.7332    61.6914   187.2602 </r>
       <r>     3.7995    52.9528   190.7701 </r>
       <r>     3.8658    44.1298   193.6952 </r>
       <r>     3.9321    39.4252   196.3084 </r>
       <r>     3.9983    40.6779   199.0047 </r>
       <r>     4.0646    43.8943   201.9142 </r>
       <r>     4.1309    42.5471   204.7344 </r>
       <r>     4.1972    34.5759   207.0262 </r>
       <r>     4.2635    24.8089   208.6707 </r>
       <r>     4.3298    19.9701   209.9944 </r>
       <r>     4.3960    22.2498   211.4692 </r>
       <r>     4.4623    28.3861   213.3507 </r>
       <r>     4.5286    33.9234   215.5993 </r>
       <r>     4.5949    36.8254   218.0402 </r>
       <r>     4.6612    37.4379   220.5218 </r>
       <r>     4.7275    37.2256   222.9892 </r>
       <r>     4.7937    38.2023   225.5214 </r>
       <r>     4.8600    41.7007   228.2855 </r>
       <r>     4.9263    46.7024   231.3811 </r>
       <r>     4.9926    50.2394   234.7112 </r>
       <r>     5.0589    49.5409   237.9950 </r>
       <r>     5.1252    43.4106   240.8724 </r>
       <r>     5.1914    32.6321   243.0354 </r>
       <r>     5.2577    20.2388   244.3769 </r>
       <r>     5.3240    10.7746   245.0911 </r>
       <r>     5.3903     7.8463   245.6112 </r>
       <r>     5.4566    11.4973   246.3732 </r>
       <r>     5.5229    17.8355   247.5554 </r>
       <r>     5.5891    21.7503   248.9971 </r>
       <r>     5.6554    20.5616   250.3601 </r>
       <r>     5.7217    15.2592   251.3715 </r>
       <r>     5.7880     8.7805   251.9535 </r>
       <r>     5.8543     3.8648   252.2097 </r>
       <r>     5.9206     2.1466   252.3520 </r>
       <r>     5.9869     3.8064   252.6043 </r>
       <r>     6.0531     7.3112   253.0889 </r>
       <r>     6.1194    10.1116   253.7591 </r>
       <r>     6.1857    10.4252   254.4501 </r>
       <r>     6.2520     8.4394   255.0095 </r>
       <r>     6.3183     5.6590   255.3846 </r>
       <r>     6.3846     3.3650   255.6077 </r>
       <r>     6.4508     1.9207   255.7350 </r>
       <r>     6.5171     1.2127   255.8154 </r>
       <r>     6.5834     1.2976   255.9014 </r>
       <r>     6.6497     2.5138   256.0680 </r>
       <r>     6.7160     4.9592   256.3967 </r>
       <r>     6.7823     7.8464   256.9168 </r>
       <r>     6.8485     9.6286   257.5550 </r>
       <r>     6.9148     9.1248   258.1599 </r>
       <r>     6.9811     6.5564   258.5944 </r>
       <r>     7.0474     3.3862   258.8189 </r>
       <r>     7.1137     1.3517   258.9085 </r>
       <r>     7.1800     1.7086   259.0217 </r>
       <r>     7.2462     4.7145   259.3342 </r>
       <r>     7.3125     9.1347   259.9397 </r>
       <r>     7.3788    12.6277   260.7767 </r>
       <r>     7.4451    13.6257   261.6799 </r>
       <r>     7.5114    13.1731   262.5531 </r>
       <r>     7.5777    14.2259   263.4960 </r>
       <r>     7.6440    18.3275   264.7108 </r>
       <r>     7.7102    23.2148   266.2496 </r>
       <r>     7.7765    24.6766   267.8853 </r>
       <r>     7.8428    20.9646   269.2749 </r>
       <r>     7.9091    14.8641   270.2601 </r>
       <r>     7.9754    11.5124   271.0232 </r>
       <r>     8.0417    14.3647   271.9754 </r>
       <r>     8.1079    22.6509   273.4768 </r>
       <r>     8.1742    32.1220   275.6059 </r>
       <r>     8.2405    38.1265   278.1331 </r>
       <r>     8.3068    38.2680   280.6697 </r>
       <r>     8.3731    33.4695   282.8881 </r>
       <r>     8.4394    27.7245   284.7258 </r>
       <r>     8.5056    25.9887   286.4485 </r>
       <r>     8.5719    30.8950   288.4963 </r>
       <r>     8.6382    41.3190   291.2351 </r>
       <r>     8.7045    53.8056   294.8016 </r>
       <r>     8.7708    64.4562   299.0740 </r>
       <r>     8.8371    69.7263   303.6957 </r>
       <r>     8.9033    67.2332   308.1522 </r>
       <r>     8.9696    57.1383   311.9395 </r>
       <r>     9.0359    42.4969   314.7564 </r>
       <r>     9.1022    27.7694   316.5971 </r>
       <r>     9.1685    17.0284   317.7258 </r>
       <r>     9.2348    12.7493   318.5709 </r>
       <r>     9.3011    14.4554   319.5290 </r>
       <r>     9.3673    18.1543   320.7324 </r>
       <r>     9.4336    18.8257   321.9802 </r>
       <r>     9.4999    14.5818   322.9467 </r>
       <r>     9.5662     7.8419   323.4665 </r>
       <r>     9.6325     2.3353   323.6213 </r>
       <r>     9.6988    -0.1352   323.6124 </r>
       <r>     9.7650    -0.0987   323.6058 </r>
       <r>     9.8313     0.9711   323.6702 </r>
       <r>     9.8976     1.8017   323.7896 </r>
       <r>     9.9639     1.8084   323.9095 </r>
       <r>    10.0302     1.1656   323.9867 </r>
       <r>    10.0965     0.4340   324.0155 </r>
       <r>    10.1627     0.0048   324.0158 </r>
       <r>    10.2290    -0.1099   324.0085 </r>
       <r>    10.2953    -0.0804   324.0032 </r>
       <r>    10.3616    -0.0349   324.0009 </r>
       <r>    10.4279    -0.0107   324.0002 </r>
       <r>    10.4942    -0.0025   324.0000 </r>
       <r>    10.5604    -0.0004   324.0000 </r>
       <r>    10.6267    -0.0001   324.0000 </r>
       <r>    10.6930    -0.0000   324.0000 </r>
       <r>    10.7593    -0.0000   324.0000 </r>
       <r>    10.8256    -0.0000   324.0000 </r>
       <r>    10.8919    -0.0000   324.0000 </r>
       <r>    10.9582    -0.0000   324.0000 </r>
       <r>    11.0244    -0.0000   324.0000 </r>
       <r>    11.0907    -0.0000   324.0000 </r>
       <r>    11.1570    -0.0000   324.0000 </r>
       <r>    11.2233     0.0000   324.0000 </r>
       <r>    11.2896     0.0000   324.0000 </r>
       <r>    11.3559     0.0000   324.0000 </r>
       <r>    11.4221     0.0000   324.0000 </r>
       <r>    11.4884     0.0000   324.0000 </r>
       <r>    11.5547     0.0000   324.0000 </r>
       <r>    11.6210     0.0000   324.0000 </r>
       <r>    11.6873     0.0000   324.0000 </r>
       <r>    11.7536     0.0000   324.0000 </r>
       <r>    11.8198     0.0000   324.0000 </r>
       <r>    11.8861     0.0000   324.0000 </r>
      </set>
     </set>
    </array>
   </total>
  </dos>
 </calculation>
 <structure name="finalpos" >
  <crystal>
   <varray name="basis" >
    <v>      10.53991456      -0.08025301       0.00000000 </v>
    <v>      -0.08025301      10.70042058       0.00000000 </v>
    <v>       0.00000000       0.00000000      10.70042058 </v>
   </varray>
   <i name="volume">   1206.74076652 </i>
   <varray name="rec_basis" >
    <v>       0.09488285       0.00071162       0.00000000 </v>
    <v>       0.00071162       0.09345961       0.00000000 </v>
    <v>       0.00000000       0.00000000       0.09345427 </v>
   </varray>
  </crystal>
  <varray name="positions" >
   <v>       0.00000000       0.00000000       0.99939209 </v>
   <v>       0.00000000       0.00000000       0.49939209 </v>
   <v>       0.00000000       0.50000000       0.99939209 </v>
   <v>       0.00000000       0.50000000       0.49939209 </v>
   <v>       0.50000000       0.00000000       0.99939209 </v>
   <v>       0.50000000       0.00000000       0.49939209 </v>
   <v>       0.50000000       0.50000000       0.99939209 </v>
   <v>       0.50000000       0.50000000       0.49939209 </v>
   <v>       0.37500000       0.37500000       0.12560791 </v>
   <v>       0.37500000       0.37500000       0.62560791 </v>
   <v>       0.37500000       0.87500000       0.12560791 </v>
   <v>       0.37500000       0.87500000       0.62560791 </v>
   <v>       0.87500000       0.37500000       0.12560791 </v>
   <v>       0.87500000       0.37500000       0.62560791 </v>
   <v>       0.87500000       0.87500000       0.12560791 </v>
   <v>       0.87500000       0.87500000       0.62560791 </v>
   <v>       0.00000000       0.25000000       0.24939209 </v>
   <v>       0.00000000       0.25000000       0.74939209 </v>
   <v>       0.00000000       0.75000000       0.24939209 </v>
   <v>       0.00000000       0.75000000       0.74939209 </v>
   <v>       0.50000000       0.25000000       0.24939209 </v>
   <v>       0.50000000       0.25000000       0.74939209 </v>
   <v>       0.50000000       0.75000000       0.24939209 </v>
   <v>       0.50000000       0.75000000       0.74939209 </v>
   <v>       0.37500000       0.12500000       0.37560791 </v>
   <v>       0.37500000       0.12500000       0.87560791 </v>
   <v>       0.37500000       0.62500000       0.37560791 </v>
   <v>       0.37500000       0.62500000       0.87560791 </v>
   <v>       0.87500000       0.12500000       0.37560791 </v>
   <v>       0.87500000       0.12500000       0.87560791 </v>
   <v>       0.87500000       0.62500000       0.37560791 </v>
   <v>       0.87500000       0.62500000       0.87560791 </v>
   <v>       0.25000000       0.00000000       0.24939209 </v>
   <v>       0.25000000       0.00000000       0.74939209 </v>
   <v>       0.25000000       0.50000000       0.24939209 </v>
   <v>       0.25000000       0.50000000       0.74939209 </v>
   <v>       0.75000000       0.00000000       0.24939209 </v>
   <v>       0.75000000       0.00000000       0.74939209 </v>
   <v>       0.75000000       0.50000000       0.24939209 </v>
   <v>       0.75000000       0.50000000       0.74939209 </v>
   <v>       0.12500000       0.37500000       0.37560791 </v>
   <v>       0.12500000       0.37500000       0.87560791 </v>
   <v>       0.12500000       0.87500000       0.37560791 </v>
   <v>       0.12500000       0.87500000       0.87560791 </v>
   <v>       0.62500000       0.37500000       0.37560791 </v>
   <v>       0.62500000       0.37500000       0.87560791 </v>
   <v>       0.62500000       0.87500000       0.37560791 </v>
   <v>       0.62500000       0.87500000       0.87560791 </v>
   <v>       0.25000000       0.25000000       0.99939209 </v>
   <v>       0.25000000       0.25000000       0.49939209 </v>
   <v>       0.25000000       0.75000000       0.99939209 </v>
   <v>       0.25000000       0.75000000       0.49939209 </v>
   <v>       0.75000000       0.25000000       0.99939209 </v>
   <v>       0.75000000       0.25000000       0.49939209 </v>
   <v>       0.75000000       0.75000000       0.99939209 </v>
   <v>       0.75000000       0.75000000       0.49939209 </v>
   <v>       0.12500000       0.12500000       0.12560791 </v>
   <v>       0.12500000       0.12500000       0.62560791 </v>
   <v>       0.12500000       0.62500000       0.12560791 </v>
   <v>       0.12500000       0.62500000       0.62560791 </v>
   <v>       0.62500000       0.12500000       0.12560791 </v>
   <v>       0.62500000       0.12500000       0.62560791 </v>
   <v>       0.62500000       0.62500000       0.12560791 </v>
   <v>       0.62500000       0.62500000       0.62560791 </v>
  </varray>
 </structure>
</modeling>
