Si64                                    
           1
    10.539915   -0.080253    0.000000
    -0.080253   10.700421    0.000000
     0.000000    0.000000   10.700421
   Si
    64
Direct configuration=     1
   0.00000000  0.00000000  0.00000000
   0.00000000  0.00000000  0.50000000
   0.00000000  0.50000000  0.00000000
   0.00000000  0.50000000  0.50000000
   0.50000000  0.00000000  0.00000000
   0.50000000  0.00000000  0.50000000
   0.50000000  0.50000000  0.00000000
   0.50000000  0.50000000  0.50000000
   0.37500000  0.37500000  0.12500000
   0.37500000  0.37500000  0.62500000
   0.37500000  0.87500000  0.12500000
   0.37500000  0.87500000  0.62500000
   0.87500000  0.37500000  0.12500000
   0.87500000  0.37500000  0.62500000
   0.87500000  0.87500000  0.12500000
   0.87500000  0.87500000  0.62500000
   0.00000000  0.25000000  0.25000000
   0.00000000  0.25000000  0.75000000
   0.00000000  0.75000000  0.25000000
   0.00000000  0.75000000  0.75000000
   0.50000000  0.25000000  0.25000000
   0.50000000  0.25000000  0.75000000
   0.50000000  0.75000000  0.25000000
   0.50000000  0.75000000  0.75000000
   0.37500000  0.12500000  0.37500000
   0.37500000  0.12500000  0.87500000
   0.37500000  0.62500000  0.37500000
   0.37500000  0.62500000  0.87500000
   0.87500000  0.12500000  0.37500000
   0.87500000  0.12500000  0.87500000
   0.87500000  0.62500000  0.37500000
   0.87500000  0.62500000  0.87500000
   0.25000000  0.00000000  0.25000000
   0.25000000  0.00000000  0.75000000
   0.25000000  0.50000000  0.25000000
   0.25000000  0.50000000  0.75000000
   0.75000000  0.00000000  0.25000000
   0.75000000  0.00000000  0.75000000
   0.75000000  0.50000000  0.25000000
   0.75000000  0.50000000  0.75000000
   0.12500000  0.37500000  0.37500000
   0.12500000  0.37500000  0.87500000
   0.12500000  0.87500000  0.37500000
   0.12500000  0.87500000  0.87500000
   0.62500000  0.37500000  0.37500000
   0.62500000  0.37500000  0.87500000
   0.62500000  0.87500000  0.37500000
   0.62500000  0.87500000  0.87500000
   0.25000000  0.25000000  0.00000000
   0.25000000  0.25000000  0.50000000
   0.25000000  0.75000000  0.00000000
   0.25000000  0.75000000  0.50000000
   0.75000000  0.25000000  0.00000000
   0.75000000  0.25000000  0.50000000
   0.75000000  0.75000000  0.00000000
   0.75000000  0.75000000  0.50000000
   0.12500000  0.12500000  0.12500000
   0.12500000  0.12500000  0.62500000
   0.12500000  0.62500000  0.12500000
   0.12500000  0.62500000  0.62500000
   0.62500000  0.12500000  0.12500000
   0.62500000  0.12500000  0.62500000
   0.62500000  0.62500000  0.12500000
   0.62500000  0.62500000  0.62500000
Direct configuration=     2
   0.00000000  1.00000000  0.99912857
   0.00000000  0.00000000  0.49912857
   1.00000000  0.50000000  0.99912857
   1.00000000  0.50000000  0.49912857
   0.50000000  1.00000000  0.99912857
   0.50000000  0.00000000  0.49912857
   0.50000000  0.50000000  0.99912857
   0.50000000  0.50000000  0.49912857
   0.37500000  0.37500000  0.12587143
   0.37500000  0.37500000  0.62587143
   0.37500000  0.87500000  0.12587143
   0.37500000  0.87500000  0.62587143
   0.87500000  0.37500000  0.12587143
   0.87500000  0.37500000  0.62587143
   0.87500000  0.87500000  0.12587143
   0.87500000  0.87500000  0.62587143
   0.00000000  0.25000000  0.24912857
   0.00000000  0.25000000  0.74912857
   0.00000000  0.75000000  0.24912857
   0.00000000  0.75000000  0.74912857
   0.50000000  0.25000000  0.24912857
   0.50000000  0.25000000  0.74912857
   0.50000000  0.75000000  0.24912857
   0.50000000  0.75000000  0.74912857
   0.37500000  0.12500000  0.37587143
   0.37500000  0.12500000  0.87587143
   0.37500000  0.62500000  0.37587143
   0.37500000  0.62500000  0.87587143
   0.87500000  0.12500000  0.37587143
   0.87500000  0.12500000  0.87587143
   0.87500000  0.62500000  0.37587143
   0.87500000  0.62500000  0.87587143
   0.25000000  1.00000000  0.24912857
   0.25000000  0.00000000  0.74912857
   0.25000000  0.50000000  0.24912857
   0.25000000  0.50000000  0.74912857
   0.75000000  1.00000000  0.24912857
   0.75000000  0.00000000  0.74912857
   0.75000000  0.50000000  0.24912857
   0.75000000  0.50000000  0.74912857
   0.12500000  0.37500000  0.37587143
   0.12500000  0.37500000  0.87587143
   0.12500000  0.87500000  0.37587143
   0.12500000  0.87500000  0.87587143
   0.62500000  0.37500000  0.37587143
   0.62500000  0.37500000  0.87587143
   0.62500000  0.87500000  0.37587143
   0.62500000  0.87500000  0.87587143
   0.25000000  0.25000000  0.99912857
   0.25000000  0.25000000  0.49912857
   0.25000000  0.75000000  0.99912857
   0.25000000  0.75000000  0.49912857
   0.75000000  0.25000000  0.99912857
   0.75000000  0.25000000  0.49912857
   0.75000000  0.75000000  0.99912857
   0.75000000  0.75000000  0.49912857
   0.12500000  0.12500000  0.12587143
   0.12500000  0.12500000  0.62587143
   0.12500000  0.62500000  0.12587143
   0.12500000  0.62500000  0.62587143
   0.62500000  0.12500000  0.12587143
   0.62500000  0.12500000  0.62587143
   0.62500000  0.62500000  0.12587143
   0.62500000  0.62500000  0.62587143
Direct configuration=     3
   0.00000000  0.00000000  0.99939209
   0.00000000  0.00000000  0.49939209
   0.00000000  0.50000000  0.99939209
   0.00000000  0.50000000  0.49939209
   0.50000000  0.00000000  0.99939209
   0.50000000  0.00000000  0.49939209
   0.50000000  0.50000000  0.99939209
   0.50000000  0.50000000  0.49939209
   0.37500000  0.37500000  0.12560791
   0.37500000  0.37500000  0.62560791
   0.37500000  0.87500000  0.12560791
   0.37500000  0.87500000  0.62560791
   0.87500000  0.37500000  0.12560791
   0.87500000  0.37500000  0.62560791
   0.87500000  0.87500000  0.12560791
   0.87500000  0.87500000  0.62560791
   0.00000000  0.25000000  0.24939209
   0.00000000  0.25000000  0.74939209
   0.00000000  0.75000000  0.24939209
   0.00000000  0.75000000  0.74939209
   0.50000000  0.25000000  0.24939209
   0.50000000  0.25000000  0.74939209
   0.50000000  0.75000000  0.24939209
   0.50000000  0.75000000  0.74939209
   0.37500000  0.12500000  0.37560791
   0.37500000  0.12500000  0.87560791
   0.37500000  0.62500000  0.37560791
   0.37500000  0.62500000  0.87560791
   0.87500000  0.12500000  0.37560791
   0.87500000  0.12500000  0.87560791
   0.87500000  0.62500000  0.37560791
   0.87500000  0.62500000  0.87560791
   0.25000000  0.00000000  0.24939209
   0.25000000  0.00000000  0.74939209
   0.25000000  0.50000000  0.24939209
   0.25000000  0.50000000  0.74939209
   0.75000000  0.00000000  0.24939209
   0.75000000  0.00000000  0.74939209
   0.75000000  0.50000000  0.24939209
   0.75000000  0.50000000  0.74939209
   0.12500000  0.37500000  0.37560791
   0.12500000  0.37500000  0.87560791
   0.12500000  0.87500000  0.37560791
   0.12500000  0.87500000  0.87560791
   0.62500000  0.37500000  0.37560791
   0.62500000  0.37500000  0.87560791
   0.62500000  0.87500000  0.37560791
   0.62500000  0.87500000  0.87560791
   0.25000000  0.25000000  0.99939209
   0.25000000  0.25000000  0.49939209
   0.25000000  0.75000000  0.99939209
   0.25000000  0.75000000  0.49939209
   0.75000000  0.25000000  0.99939209
   0.75000000  0.25000000  0.49939209
   0.75000000  0.75000000  0.99939209
   0.75000000  0.75000000  0.49939209
   0.12500000  0.12500000  0.12560791
   0.12500000  0.12500000  0.62560791
   0.12500000  0.62500000  0.12560791
   0.12500000  0.62500000  0.62560791
   0.62500000  0.12500000  0.12560791
   0.62500000  0.12500000  0.62560791
   0.62500000  0.62500000  0.12560791
   0.62500000  0.62500000  0.62560791
