  64  64   0   0
  0.1968194E+02  0.1087191E-08  0.1076427E-08  0.1076413E-08  0.5000000E-15
  1.000000000000000E-004
  CAR 
 Si64                                    
     11.41991591     -8.14279421  301      6.26264000      1.00000000
     -8.143  0.0000E+00  0.0000E+00
     -8.078  0.0000E+00  0.0000E+00
     -8.012  0.0000E+00  0.0000E+00
     -7.947  0.0000E+00  0.0000E+00
     -7.882  0.0000E+00  0.0000E+00
     -7.817  0.0000E+00  0.0000E+00
     -7.752 -0.1153E-28 -0.7518E-30
     -7.686 -0.1875E-26 -0.1230E-27
     -7.621 -0.2472E-24 -0.1624E-25
     -7.556 -0.2629E-22 -0.1731E-23
     -7.491 -0.2255E-20 -0.1488E-21
     -7.425 -0.1559E-18 -0.1031E-19
     -7.360 -0.8685E-17 -0.5766E-18
     -7.295 -0.3791E-15 -0.2530E-16
     -7.230 -0.1361E-13 -0.9125E-15
     -7.165 -0.3936E-12 -0.2658E-13
     -7.099 -0.9144E-11 -0.6228E-12
     -7.034 -0.1703E-09 -0.1173E-10
     -6.969 -0.2540E-08 -0.1773E-09
     -6.904 -0.3024E-07 -0.2149E-08
     -6.839 -0.2867E-06 -0.2084E-07
     -6.773 -0.2153E-05 -0.1612E-06
     -6.708 -0.1273E-04 -0.9911E-06
     -6.643 -0.5858E-04 -0.4811E-05
     -6.578 -0.2062E-03 -0.1825E-04
     -6.513 -0.5356E-03 -0.5318E-04
     -6.447 -0.9435E-03 -0.1147E-03
     -6.382 -0.7976E-03 -0.1667E-03
     -6.317  0.9633E-03 -0.1039E-03
     -6.252  0.4613E-02  0.1969E-03
     -6.187  0.8641E-02  0.7604E-03
     -6.121  0.1220E-01  0.1556E-02
     -6.056  0.1968E-01  0.2839E-02
     -5.991  0.3834E-01  0.5339E-02
     -5.926  0.6647E-01  0.9674E-02
     -5.860  0.9013E-01  0.1555E-01
     -5.795  0.1022E+00  0.2221E-01
     -5.730  0.1177E+00  0.2989E-01
     -5.665  0.1527E+00  0.3985E-01
     -5.600  0.1912E+00  0.5232E-01
     -5.534  0.2000E+00  0.6536E-01
     -5.469  0.1755E+00  0.7680E-01
     -5.404  0.1479E+00  0.8645E-01
     -5.339  0.1349E+00  0.9524E-01
     -5.274  0.1227E+00  0.1032E+00
     -5.208  0.9915E-01  0.1097E+00
     -5.143  0.7641E-01  0.1147E+00
     -5.078  0.7089E-01  0.1193E+00
     -5.013  0.8883E-01  0.1251E+00
     -4.948  0.1405E+00  0.1343E+00
     -4.882  0.2360E+00  0.1497E+00
     -4.817  0.3504E+00  0.1725E+00
     -4.752  0.4304E+00  0.2006E+00
     -4.687  0.4573E+00  0.2304E+00
     -4.622  0.4607E+00  0.2604E+00
     -4.556  0.4502E+00  0.2898E+00
     -4.491  0.3874E+00  0.3151E+00
     -4.426  0.2546E+00  0.3317E+00
     -4.361  0.1014E+00  0.3383E+00
     -4.295 -0.1228E-02  0.3382E+00
     -4.230 -0.1802E-01  0.3370E+00
     -4.165  0.4991E-01  0.3403E+00
     -4.100  0.1846E+00  0.3523E+00
     -4.035  0.3494E+00  0.3751E+00
     -3.969  0.4838E+00  0.4066E+00
     -3.904  0.5273E+00  0.4410E+00
     -3.839  0.4641E+00  0.4713E+00
     -3.774  0.3420E+00  0.4936E+00
     -3.709  0.2408E+00  0.5093E+00
     -3.643  0.2246E+00  0.5239E+00
     -3.578  0.3128E+00  0.5443E+00
     -3.513  0.4708E+00  0.5750E+00
     -3.448  0.6237E+00  0.6157E+00
     -3.383  0.7062E+00  0.6618E+00
     -3.317  0.7035E+00  0.7076E+00
     -3.252  0.6401E+00  0.7494E+00
     -3.187  0.5462E+00  0.7850E+00
     -3.122  0.4560E+00  0.8147E+00
     -3.056  0.4096E+00  0.8414E+00
     -2.991  0.4119E+00  0.8683E+00
     -2.926  0.4051E+00  0.8947E+00
     -2.861  0.3270E+00  0.9160E+00
     -2.796  0.1887E+00  0.9283E+00
     -2.730  0.5875E-01  0.9322E+00
     -2.665 -0.1451E-01  0.9312E+00
     -2.600 -0.3199E-01  0.9291E+00
     -2.535 -0.1087E-01  0.9284E+00
     -2.470  0.4281E-01  0.9312E+00
     -2.404  0.1196E+00  0.9390E+00
     -2.339  0.1844E+00  0.9511E+00
     -2.274  0.1928E+00  0.9636E+00
     -2.209  0.1351E+00  0.9724E+00
     -2.144  0.5423E-01  0.9760E+00
     -2.078  0.1858E-01  0.9772E+00
     -2.013  0.8066E-01  0.9824E+00
     -1.948  0.2467E+00  0.9985E+00
     -1.883  0.4578E+00  0.1028E+01
     -1.818  0.6055E+00  0.1068E+01
     -1.752  0.6007E+00  0.1107E+01
     -1.687  0.4465E+00  0.1136E+01
     -1.622  0.2353E+00  0.1151E+01
     -1.557  0.7546E-01  0.1156E+01
     -1.491  0.2224E-01  0.1158E+01
     -1.426  0.6332E-01  0.1162E+01
     -1.361  0.1416E+00  0.1171E+01
     -1.296  0.1926E+00  0.1184E+01
     -1.231  0.1857E+00  0.1196E+01
     -1.165  0.1459E+00  0.1205E+01
     -1.100  0.1338E+00  0.1214E+01
     -1.035  0.1927E+00  0.1227E+01
     -0.970  0.3005E+00  0.1246E+01
     -0.905  0.3792E+00  0.1271E+01
     -0.839  0.3789E+00  0.1296E+01
     -0.774  0.3521E+00  0.1319E+01
     -0.709  0.4085E+00  0.1345E+01
     -0.644  0.5959E+00  0.1384E+01
     -0.579  0.8381E+00  0.1439E+01
     -0.513  0.9816E+00  0.1503E+01
     -0.448  0.9054E+00  0.1562E+01
     -0.383  0.6228E+00  0.1603E+01
     -0.318  0.2847E+00  0.1621E+01
     -0.253  0.6425E-01  0.1625E+01
     -0.187  0.3931E-01  0.1628E+01
     -0.122  0.1670E+00  0.1639E+01
     -0.057  0.3293E+00  0.1660E+01
      0.008  0.4081E+00  0.1687E+01
      0.074  0.3623E+00  0.1710E+01
      0.139  0.2450E+00  0.1726E+01
      0.204  0.1389E+00  0.1735E+01
      0.269  0.9122E-01  0.1741E+01
      0.334  0.1100E+00  0.1749E+01
      0.400  0.1870E+00  0.1761E+01
      0.465  0.3028E+00  0.1781E+01
      0.530  0.4190E+00  0.1808E+01
      0.595  0.4796E+00  0.1839E+01
      0.660  0.4396E+00  0.1868E+01
      0.726  0.3067E+00  0.1888E+01
      0.791  0.1473E+00  0.1897E+01
      0.856  0.3221E-01  0.1899E+01
      0.921 -0.1646E-01  0.1898E+01
      0.986 -0.2153E-01  0.1897E+01
      1.052 -0.1402E-01  0.1896E+01
      1.117 -0.1141E-01  0.1895E+01
      1.182 -0.1912E-01  0.1894E+01
      1.247 -0.3387E-01  0.1892E+01
      1.313 -0.3528E-01  0.1890E+01
      1.378  0.2412E-01  0.1891E+01
      1.443  0.2001E+00  0.1904E+01
      1.508  0.4939E+00  0.1936E+01
      1.573  0.7962E+00  0.1988E+01
      1.639  0.9304E+00  0.2049E+01
      1.704  0.8033E+00  0.2101E+01
      1.769  0.5121E+00  0.2135E+01
      1.834  0.2698E+00  0.2152E+01
      1.899  0.2147E+00  0.2166E+01
      1.965  0.3062E+00  0.2186E+01
      2.030  0.3965E+00  0.2212E+01
      2.095  0.3871E+00  0.2237E+01
      2.160  0.3240E+00  0.2259E+01
      2.225  0.3594E+00  0.2282E+01
      2.291  0.6121E+00  0.2322E+01
      2.356  0.1034E+01  0.2389E+01
      2.421  0.1401E+01  0.2481E+01
      2.486  0.1468E+01  0.2576E+01
      2.551  0.1170E+01  0.2653E+01
      2.617  0.6774E+00  0.2697E+01
      2.682  0.2371E+00  0.2712E+01
      2.747 -0.1635E-01  0.2711E+01
      2.812 -0.1012E+00  0.2705E+01
      2.878 -0.8320E-01  0.2699E+01
      2.943  0.2465E-01  0.2701E+01
      3.008  0.2576E+00  0.2718E+01
      3.073  0.6142E+00  0.2758E+01
      3.138  0.9990E+00  0.2823E+01
      3.204  0.1273E+01  0.2906E+01
      3.269  0.1357E+01  0.2994E+01
      3.334  0.1270E+01  0.3077E+01
      3.399  0.1082E+01  0.3148E+01
      3.464  0.8633E+00  0.3204E+01
      3.530  0.6829E+00  0.3249E+01
      3.595  0.6100E+00  0.3288E+01
      3.660  0.6584E+00  0.3331E+01
      3.725  0.7356E+00  0.3379E+01
      3.790  0.7090E+00  0.3425E+01
      3.856  0.5569E+00  0.3462E+01
      3.921  0.4047E+00  0.3488E+01
      3.986  0.3790E+00  0.3513E+01
      4.051  0.4667E+00  0.3543E+01
      4.117  0.5580E+00  0.3580E+01
      4.182  0.5895E+00  0.3618E+01
      4.247  0.5924E+00  0.3657E+01
      4.312  0.6152E+00  0.3697E+01
      4.377  0.6644E+00  0.3740E+01
      4.443  0.7290E+00  0.3788E+01
      4.508  0.8086E+00  0.3840E+01
      4.573  0.8892E+00  0.3898E+01
      4.638  0.9189E+00  0.3958E+01
      4.703  0.8364E+00  0.4013E+01
      4.769  0.6304E+00  0.4054E+01
      4.834  0.3665E+00  0.4078E+01
      4.899  0.1513E+00  0.4088E+01
      4.964  0.6597E-01  0.4092E+01
      5.029  0.1240E+00  0.4100E+01
      5.095  0.2669E+00  0.4118E+01
      5.160  0.3928E+00  0.4143E+01
      5.225  0.4150E+00  0.4170E+01
      5.290  0.3197E+00  0.4191E+01
      5.355  0.1703E+00  0.4202E+01
      5.421  0.5203E-01  0.4206E+01
      5.486  0.1411E-01  0.4207E+01
      5.551  0.5350E-01  0.4210E+01
      5.616  0.1290E+00  0.4218E+01
      5.682  0.1854E+00  0.4231E+01
      5.747  0.1866E+00  0.4243E+01
      5.812  0.1402E+00  0.4252E+01
      5.877  0.8509E-01  0.4257E+01
      5.942  0.5081E-01  0.4261E+01
      6.008  0.3658E-01  0.4263E+01
      6.073  0.2606E-01  0.4265E+01
      6.138  0.1201E-01  0.4266E+01
      6.203  0.3552E-02  0.4266E+01
      6.268  0.1638E-01  0.4267E+01
      6.334  0.5780E-01  0.4271E+01
      6.399  0.1161E+00  0.4278E+01
      6.464  0.1631E+00  0.4289E+01
      6.529  0.1718E+00  0.4300E+01
      6.594  0.1362E+00  0.4309E+01
      6.660  0.7619E-01  0.4314E+01
      6.725  0.2533E-01  0.4316E+01
      6.790  0.1484E-01  0.4316E+01
      6.855  0.5916E-01  0.4320E+01
      6.920  0.1436E+00  0.4330E+01
      6.986  0.2235E+00  0.4344E+01
      7.051  0.2529E+00  0.4361E+01
      7.116  0.2305E+00  0.4376E+01
      7.181  0.2143E+00  0.4390E+01
      7.247  0.2689E+00  0.4407E+01
      7.312  0.3879E+00  0.4433E+01
      7.377  0.4809E+00  0.4464E+01
      7.442  0.4581E+00  0.4494E+01
      7.507  0.3266E+00  0.4515E+01
      7.573  0.1946E+00  0.4528E+01
      7.638  0.1822E+00  0.4540E+01
      7.703  0.3288E+00  0.4561E+01
      7.768  0.5647E+00  0.4598E+01
      7.833  0.7574E+00  0.4647E+01
      7.899  0.8037E+00  0.4700E+01
      7.964  0.7059E+00  0.4746E+01
      8.029  0.5719E+00  0.4783E+01
      8.094  0.5298E+00  0.4818E+01
      8.159  0.6325E+00  0.4859E+01
      8.225  0.8324E+00  0.4913E+01
      8.290  0.1027E+01  0.4980E+01
      8.355  0.1123E+01  0.5053E+01
      8.420  0.1078E+01  0.5124E+01
      8.486  0.9127E+00  0.5183E+01
      8.551  0.6879E+00  0.5228E+01
      8.616  0.4698E+00  0.5259E+01
      8.681  0.3090E+00  0.5279E+01
      8.746  0.2297E+00  0.5294E+01
      8.812  0.2290E+00  0.5309E+01
      8.877  0.2778E+00  0.5327E+01
      8.942  0.3239E+00  0.5348E+01
      9.007  0.3138E+00  0.5368E+01
      9.072  0.2336E+00  0.5384E+01
      9.138  0.1224E+00  0.5392E+01
      9.203  0.3573E-01  0.5394E+01
      9.268  0.2754E-03  0.5394E+01
      9.333  0.4719E-02  0.5394E+01
      9.398  0.2163E-01  0.5396E+01
      9.464  0.3009E-01  0.5398E+01
      9.529  0.2489E-01  0.5399E+01
      9.594  0.1291E-01  0.5400E+01
      9.659  0.3040E-02  0.5400E+01
      9.724 -0.1293E-02  0.5400E+01
      9.790 -0.1743E-02  0.5400E+01
      9.855 -0.9850E-03  0.5400E+01
      9.920 -0.3724E-03  0.5400E+01
      9.985 -0.1038E-03  0.5400E+01
     10.051 -0.2213E-04  0.5400E+01
     10.116 -0.3677E-05  0.5400E+01
     10.181 -0.4812E-06  0.5400E+01
     10.246 -0.4994E-07  0.5400E+01
     10.311 -0.4128E-08  0.5400E+01
     10.377 -0.2726E-09  0.5400E+01
     10.442 -0.1442E-10  0.5400E+01
     10.507 -0.6120E-12  0.5400E+01
     10.572 -0.2086E-13  0.5400E+01
     10.637 -0.5675E-15  0.5400E+01
     10.703 -0.1419E-16  0.5400E+01
     10.768  0.0000E+00  0.5400E+01
     10.833  0.0000E+00  0.5400E+01
     10.898  0.0000E+00  0.5400E+01
     10.963  0.0000E+00  0.5400E+01
     11.029  0.0000E+00  0.5400E+01
     11.094  0.0000E+00  0.5400E+01
     11.159  0.0000E+00  0.5400E+01
     11.224  0.0000E+00  0.5400E+01
     11.289  0.0000E+00  0.5400E+01
     11.355  0.0000E+00  0.5400E+01
     11.420  0.0000E+00  0.5400E+01
