Si64                                    
           1
    10.871775    0.053821    0.000000
     0.053821   10.764134    0.000000
     0.000000    0.000000   10.764134
   Si
    64
Direct configuration=     1
   0.00000000  0.00000000  0.00000000
   0.00000000  0.00000000  0.50000000
   0.00000000  0.50000000  0.00000000
   0.00000000  0.50000000  0.50000000
   0.50000000  0.00000000  0.00000000
   0.50000000  0.00000000  0.50000000
   0.50000000  0.50000000  0.00000000
   0.50000000  0.50000000  0.50000000
   0.37500000  0.37500000  0.12500000
   0.37500000  0.37500000  0.62500000
   0.37500000  0.87500000  0.12500000
   0.37500000  0.87500000  0.62500000
   0.87500000  0.37500000  0.12500000
   0.87500000  0.37500000  0.62500000
   0.87500000  0.87500000  0.12500000
   0.87500000  0.87500000  0.62500000
   0.00000000  0.25000000  0.25000000
   0.00000000  0.25000000  0.75000000
   0.00000000  0.75000000  0.25000000
   0.00000000  0.75000000  0.75000000
   0.50000000  0.25000000  0.25000000
   0.50000000  0.25000000  0.75000000
   0.50000000  0.75000000  0.25000000
   0.50000000  0.75000000  0.75000000
   0.37500000  0.12500000  0.37500000
   0.37500000  0.12500000  0.87500000
   0.37500000  0.62500000  0.37500000
   0.37500000  0.62500000  0.87500000
   0.87500000  0.12500000  0.37500000
   0.87500000  0.12500000  0.87500000
   0.87500000  0.62500000  0.37500000
   0.87500000  0.62500000  0.87500000
   0.25000000  0.00000000  0.25000000
   0.25000000  0.00000000  0.75000000
   0.25000000  0.50000000  0.25000000
   0.25000000  0.50000000  0.75000000
   0.75000000  0.00000000  0.25000000
   0.75000000  0.00000000  0.75000000
   0.75000000  0.50000000  0.25000000
   0.75000000  0.50000000  0.75000000
   0.12500000  0.37500000  0.37500000
   0.12500000  0.37500000  0.87500000
   0.12500000  0.87500000  0.37500000
   0.12500000  0.87500000  0.87500000
   0.62500000  0.37500000  0.37500000
   0.62500000  0.37500000  0.87500000
   0.62500000  0.87500000  0.37500000
   0.62500000  0.87500000  0.87500000
   0.25000000  0.25000000  0.00000000
   0.25000000  0.25000000  0.50000000
   0.25000000  0.75000000  0.00000000
   0.25000000  0.75000000  0.50000000
   0.75000000  0.25000000  0.00000000
   0.75000000  0.25000000  0.50000000
   0.75000000  0.75000000  0.00000000
   0.75000000  0.75000000  0.50000000
   0.12500000  0.12500000  0.12500000
   0.12500000  0.12500000  0.62500000
   0.12500000  0.62500000  0.12500000
   0.12500000  0.62500000  0.62500000
   0.62500000  0.12500000  0.12500000
   0.62500000  0.12500000  0.62500000
   0.62500000  0.62500000  0.12500000
   0.62500000  0.62500000  0.62500000
Direct configuration=     2
   0.00000000  1.00000000  0.00048128
   0.00000000  1.00000000  0.50048128
   0.00000000  0.50000000  0.00048128
   0.00000000  0.50000000  0.50048128
   0.50000000  0.00000000  0.00048128
   0.50000000  0.00000000  0.50048128
   0.50000000  0.50000000  0.00048128
   0.50000000  0.50000000  0.50048128
   0.37500000  0.37500000  0.12451872
   0.37500000  0.37500000  0.62451872
   0.37500000  0.87500000  0.12451872
   0.37500000  0.87500000  0.62451872
   0.87500000  0.37500000  0.12451872
   0.87500000  0.37500000  0.62451872
   0.87500000  0.87500000  0.12451872
   0.87500000  0.87500000  0.62451872
   0.00000000  0.25000000  0.25048128
   0.00000000  0.25000000  0.75048128
   0.00000000  0.75000000  0.25048128
   0.00000000  0.75000000  0.75048128
   0.50000000  0.25000000  0.25048128
   0.50000000  0.25000000  0.75048128
   0.50000000  0.75000000  0.25048128
   0.50000000  0.75000000  0.75048128
   0.37500000  0.12500000  0.37451872
   0.37500000  0.12500000  0.87451872
   0.37500000  0.62500000  0.37451872
   0.37500000  0.62500000  0.87451872
   0.87500000  0.12500000  0.37451872
   0.87500000  0.12500000  0.87451872
   0.87500000  0.62500000  0.37451872
   0.87500000  0.62500000  0.87451872
   0.25000000  1.00000000  0.25048128
   0.25000000  1.00000000  0.75048128
   0.25000000  0.50000000  0.25048128
   0.25000000  0.50000000  0.75048128
   0.75000000  0.00000000  0.25048128
   0.75000000  0.00000000  0.75048128
   0.75000000  0.50000000  0.25048128
   0.75000000  0.50000000  0.75048128
   0.12500000  0.37500000  0.37451872
   0.12500000  0.37500000  0.87451872
   0.12500000  0.87500000  0.37451872
   0.12500000  0.87500000  0.87451872
   0.62500000  0.37500000  0.37451872
   0.62500000  0.37500000  0.87451872
   0.62500000  0.87500000  0.37451872
   0.62500000  0.87500000  0.87451872
   0.25000000  0.25000000  0.00048128
   0.25000000  0.25000000  0.50048128
   0.25000000  0.75000000  0.00048128
   0.25000000  0.75000000  0.50048128
   0.75000000  0.25000000  0.00048128
   0.75000000  0.25000000  0.50048128
   0.75000000  0.75000000  0.00048128
   0.75000000  0.75000000  0.50048128
   0.12500000  0.12500000  0.12451872
   0.12500000  0.12500000  0.62451872
   0.12500000  0.62500000  0.12451872
   0.12500000  0.62500000  0.62451872
   0.62500000  0.12500000  0.12451872
   0.62500000  0.12500000  0.62451872
   0.62500000  0.62500000  0.12451872
   0.62500000  0.62500000  0.62451872
Direct configuration=     3
   0.00000000  0.00000000  0.00035787
   0.00000000  0.00000000  0.50035787
   0.00000000  0.50000000  0.00035787
   0.00000000  0.50000000  0.50035787
   0.50000000  0.00000000  0.00035787
   0.50000000  0.00000000  0.50035787
   0.50000000  0.50000000  0.00035787
   0.50000000  0.50000000  0.50035787
   0.37500000  0.37500000  0.12464213
   0.37500000  0.37500000  0.62464213
   0.37500000  0.87500000  0.12464213
   0.37500000  0.87500000  0.62464213
   0.87500000  0.37500000  0.12464213
   0.87500000  0.37500000  0.62464213
   0.87500000  0.87500000  0.12464213
   0.87500000  0.87500000  0.62464213
   0.00000000  0.25000000  0.25035787
   0.00000000  0.25000000  0.75035787
   0.00000000  0.75000000  0.25035787
   0.00000000  0.75000000  0.75035787
   0.50000000  0.25000000  0.25035787
   0.50000000  0.25000000  0.75035787
   0.50000000  0.75000000  0.25035787
   0.50000000  0.75000000  0.75035787
   0.37500000  0.12500000  0.37464213
   0.37500000  0.12500000  0.87464213
   0.37500000  0.62500000  0.37464213
   0.37500000  0.62500000  0.87464213
   0.87500000  0.12500000  0.37464213
   0.87500000  0.12500000  0.87464213
   0.87500000  0.62500000  0.37464213
   0.87500000  0.62500000  0.87464213
   0.25000000  0.00000000  0.25035787
   0.25000000  0.00000000  0.75035787
   0.25000000  0.50000000  0.25035787
   0.25000000  0.50000000  0.75035787
   0.75000000  0.00000000  0.25035787
   0.75000000  0.00000000  0.75035787
   0.75000000  0.50000000  0.25035787
   0.75000000  0.50000000  0.75035787
   0.12500000  0.37500000  0.37464213
   0.12500000  0.37500000  0.87464213
   0.12500000  0.87500000  0.37464213
   0.12500000  0.87500000  0.87464213
   0.62500000  0.37500000  0.37464213
   0.62500000  0.37500000  0.87464213
   0.62500000  0.87500000  0.37464213
   0.62500000  0.87500000  0.87464213
   0.25000000  0.25000000  0.00035787
   0.25000000  0.25000000  0.50035787
   0.25000000  0.75000000  0.00035787
   0.25000000  0.75000000  0.50035787
   0.75000000  0.25000000  0.00035787
   0.75000000  0.25000000  0.50035787
   0.75000000  0.75000000  0.00035787
   0.75000000  0.75000000  0.50035787
   0.12500000  0.12500000  0.12464213
   0.12500000  0.12500000  0.62464213
   0.12500000  0.62500000  0.12464213
   0.12500000  0.62500000  0.62464213
   0.62500000  0.12500000  0.12464213
   0.62500000  0.12500000  0.62464213
   0.62500000  0.62500000  0.12464213
   0.62500000  0.62500000  0.62464213
