       N       E                     dE             d eps       ncg     rms          rms(c)
DAV:   1     0.561845109361E+03    0.56185E+03   -0.84184E+04  2592   0.106E+03
DAV:   2    -0.311882851997E+03   -0.87373E+03   -0.83032E+03  3128   0.172E+02
DAV:   3    -0.373364458097E+03   -0.61482E+02   -0.60390E+02  3144   0.406E+01
DAV:   4    -0.374920262691E+03   -0.15558E+01   -0.15446E+01  3136   0.787E+00
DAV:   5    -0.374969641268E+03   -0.49379E-01   -0.49277E-01  3076   0.131E+00    0.286E+01
RMM:   6    -0.369806846450E+03    0.51628E+01   -0.25883E+00  2592   0.252E+00    0.172E+01
RMM:   7    -0.367459101697E+03    0.23477E+01   -0.66495E+00  2649   0.404E+00    0.973E-01
RMM:   8    -0.367500839000E+03   -0.41737E-01   -0.62692E-01  2619   0.154E+00    0.495E-01
RMM:   9    -0.367520337415E+03   -0.19498E-01   -0.18062E-01  2661   0.753E-01    0.572E-01
RMM:  10    -0.367523684511E+03   -0.33471E-02   -0.32498E-02  2746   0.356E-01    0.722E-01
RMM:  11    -0.367521396638E+03    0.22879E-02   -0.10348E-02  2592   0.209E-01    0.737E-01
RMM:  12    -0.367521438620E+03   -0.41981E-04   -0.16989E-03  2601   0.979E-02    0.787E-01
RMM:  13    -0.367521501438E+03   -0.62818E-04   -0.32710E-04  2763   0.405E-02    0.824E-01
RMM:  14    -0.367521251734E+03    0.24970E-03   -0.12840E-04  2592   0.270E-02    0.689E-01
RMM:  15    -0.367521443421E+03   -0.19169E-03   -0.73426E-05  2592   0.160E-02    0.632E-01
RMM:  16    -0.367521663058E+03   -0.21964E-03   -0.56319E-05  2592   0.173E-02    0.477E-01
RMM:  17    -0.367521760812E+03   -0.97754E-04   -0.40319E-05  2592   0.150E-02    0.271E-01
RMM:  18    -0.367521791295E+03   -0.30483E-04   -0.12121E-05  2592   0.875E-03    0.127E-01
RMM:  19    -0.367521804510E+03   -0.13214E-04   -0.59392E-06  2246   0.593E-03    0.353E-02
RMM:  20    -0.367521807973E+03   -0.34631E-05   -0.27560E-06  1837   0.391E-03    0.130E-02
RMM:  21    -0.367521808641E+03   -0.66840E-06   -0.59155E-07  1560   0.169E-03
   1 F= -.36752181E+03 E0= -.36753125E+03  d E =-.367522E+03
       N       E                     dE             d eps       ncg     rms          rms(c)
DAV:   1    -0.367524017745E+03   -0.22098E-02   -0.11061E-01  3000   0.636E-01    0.144E-01
RMM:   2    -0.367524575637E+03   -0.55789E-03   -0.58372E-03  2593   0.159E-01    0.579E-02
RMM:   3    -0.367524667313E+03   -0.91676E-04   -0.94787E-04  2647   0.721E-02    0.246E-02
RMM:   4    -0.367524668271E+03   -0.95736E-06   -0.12900E-04  2676   0.300E-02    0.865E-03
RMM:   5    -0.367524669162E+03   -0.89117E-06   -0.21267E-05  2602   0.118E-02    0.189E-03
RMM:   6    -0.367524669671E+03   -0.50939E-06   -0.50143E-06  1976   0.525E-03    0.376E-04
RMM:   7    -0.367524669746E+03   -0.75264E-07   -0.78204E-07  1537   0.206E-03    0.303E-04
RMM:   8    -0.367524669766E+03   -0.19628E-07   -0.20686E-07  1296   0.102E-03
   2 F= -.36752467E+03 E0= -.36753413E+03  d E =-.286112E-02
       N       E                     dE             d eps       ncg     rms          rms(c)
DAV:   1    -0.367524981764E+03   -0.31202E-03   -0.68476E-03  2960   0.158E-01    0.356E-02
RMM:   2    -0.367525015854E+03   -0.34091E-04   -0.35479E-04  2592   0.395E-02    0.144E-02
RMM:   3    -0.367525021434E+03   -0.55799E-05   -0.56859E-05  2641   0.178E-02    0.610E-03
RMM:   4    -0.367525021526E+03   -0.91812E-07   -0.75790E-06  2323   0.740E-03    0.211E-03
RMM:   5    -0.367525021592E+03   -0.65893E-07   -0.12808E-06  1560   0.295E-03    0.530E-04
RMM:   6    -0.367525021620E+03   -0.27891E-07   -0.27864E-07  1458   0.126E-03    0.140E-04
RMM:   7    -0.367525021626E+03   -0.63073E-08   -0.69953E-08   913   0.681E-04    0.132E-04
RMM:   8    -0.367525021628E+03   -0.17508E-08   -0.10478E-08   540   0.472E-04
   3 F= -.36752502E+03 E0= -.36753448E+03  d E =-.321299E-02
