<?xml version="1.0" encoding="ISO-8859-1"?>
<modeling>
 <generator>
  <i name="program" type="string">vasp </i>
  <i name="version" type="string">6.4.3  </i>
  <i name="subversion" type="string">19Mar24 (build Oct 21 2024 22:36:34) complex                          parallel </i>
  <i name="platform" type="string">LinuxIFC </i>
  <i name="date" type="string">2024 11 01 </i>
  <i name="time" type="string">22:48:34 </i>
 </generator>
 <incar>
  <i type="string" name="SYSTEM">Si64</i>
  <i type="int" name="ISTART">     0</i>
  <i type="string" name="PREC">Accurate</i>
  <i type="string" name="ALGO">Fast</i>
  <i type="logical" name="ADDGRID"> T  </i>
  <i type="int" name="ICHARG">     2</i>
  <i type="int" name="NELM">    60</i>
  <i type="int" name="NELMIN">     8</i>
  <i type="int" name="IBRION">     2</i>
  <i name="EDIFF">      0.00000100</i>
  <i name="EDIFFG">     -0.01000000</i>
  <i type="int" name="NSW">    60</i>
  <i type="int" name="ISIF">     2</i>
  <i name="ENCUT">    400.00000000</i>
  <i type="string" name="LREAL">Auto</i>
  <i type="int" name="ISMEAR">     1</i>
  <i name="SIGMA">      0.20000000</i>
  <i type="logical" name="LWAVE"> F  </i>
  <i type="logical" name="LCHARG"> F  </i>
  <i type="logical" name="GGA_COMPAT"> F  </i>
  <i type="string" name="GGA">PS</i>
 </incar>
 <primitive_cell>
  <structure name="primitive_cell" >
   <crystal>
    <varray name="basis" >
     <v>       0.00674900       2.69956615      -2.69956615 </v>
     <v>       0.00674900       2.69956615       2.69956615 </v>
     <v>       2.70631490      -2.69281715       0.00000000 </v>
    </varray>
    <i name="volume">     39.54351445 </i>
    <varray name="rec_basis" >
     <v>       0.18383389       0.18475536      -0.18521495 </v>
     <v>       0.18383389       0.18475536       0.18521495 </v>
     <v>       0.36858926      -0.00092148       0.00000000 </v>
    </varray>
   </crystal>
   <varray name="positions" >
    <v>       0.00000000       0.00000000       0.00000000 </v>
    <v>       0.25000000       0.75000000       0.50000000 </v>
   </varray>
  </structure>
  <varray name="primitive_index" >
   <v type="int" >        1 </v>
   <v type="int" >       15 </v>
  </varray>
 </primitive_cell>
 <kpoints>
  <generation param="Gamma">
   <v type="int" name="divisions">       2        2        2 </v>
   <v name="usershift">      0.00000000       0.00000000       0.00000000 </v>
   <v name="genvec1">      0.50000000       0.00000000       0.00000000 </v>
   <v name="genvec2">     -0.00000000       0.50000000       0.00000000 </v>
   <v name="genvec3">      0.00000000       0.00000000       0.50000000 </v>
   <v name="shift">      0.00000000       0.00000000       0.00000000 </v>
  </generation>
  <varray name="kpointlist" >
   <v>       0.00000000       0.00000000       0.00000000 </v>
   <v>       0.50000000      -0.00000000       0.00000000 </v>
   <v>      -0.00000000       0.50000000       0.00000000 </v>
   <v>       0.50000000       0.50000000       0.00000000 </v>
   <v>       0.00000000       0.00000000       0.50000000 </v>
   <v>       0.50000000      -0.00000000       0.50000000 </v>
   <v>      -0.00000000       0.50000000       0.50000000 </v>
   <v>       0.50000000       0.50000000       0.50000000 </v>
  </varray>
  <varray name="weights" >
   <v>       0.12500000 </v>
   <v>       0.12500000 </v>
   <v>       0.12500000 </v>
   <v>       0.12500000 </v>
   <v>       0.12500000 </v>
   <v>       0.12500000 </v>
   <v>       0.12500000 </v>
   <v>       0.12500000 </v>
  </varray>
 </kpoints>
 <parameters>
  <separator name="general" >
   <i type="string" name="SYSTEM">Si64</i>
   <i type="logical" name="LCOMPAT"> F  </i>
  </separator>
  <separator name="electronic" >
   <i type="string" name="PREC">accura</i>
   <i name="ENMAX">    400.00000000</i>
   <i name="ENAUG">    322.06900000</i>
   <i name="EDIFF">      0.00000100</i>
   <i type="int" name="IALGO">    68</i>
   <i type="int" name="IWAVPR">    11</i>
   <i type="int" name="NBANDS">   162</i>
   <i type="int" name="NBANDSLOW">    -1</i>
   <i type="int" name="NBANDSHIGH">    -1</i>
   <i name="NELECT">    256.00000000</i>
   <i type="int" name="TURBO">     0</i>
   <i type="int" name="IRESTART">     0</i>
   <i type="int" name="NREBOOT">     0</i>
   <i type="int" name="NMIN">     0</i>
   <i name="EREF">      0.00000000</i>
   <separator name="electronic smearing" >
    <i type="int" name="ISMEAR">     1</i>
    <i name="SIGMA">      0.20000000</i>
    <i name="KSPACING">      0.50000000</i>
    <i type="logical" name="KGAMMA"> T  </i>
    <i type="logical" name="KBLOWUP"> T  </i>
   </separator>
   <separator name="electronic projectors" >
    <i type="logical" name="LREAL"> T  </i>
    <v name="ROPT">     -0.00025000</v>
    <i type="int" name="LMAXPAW">  -100</i>
    <i type="int" name="LMAXMIX">     2</i>
    <i type="logical" name="NLSPLINE"> F  </i>
   </separator>
   <separator name="electronic startup" >
    <i type="int" name="ISTART">     0</i>
    <i type="int" name="ICHARG">     2</i>
    <i type="int" name="INIWAV">     1</i>
   </separator>
   <separator name="electronic spin" >
    <i type="int" name="ISPIN">     1</i>
    <i type="logical" name="LNONCOLLINEAR"> F  </i>
    <v name="MAGMOM">      1.00000000      1.00000000      1.00000000      1.00000000      1.00000000      1.00000000      1.00000000      1.00000000      1.00000000      1.00000000      1.00000000      1.00000000      1.00000000      1.00000000      1.00000000      1.00000000      1.00000000      1.00000000      1.00000000      1.00000000
      1.00000000      1.00000000      1.00000000      1.00000000      1.00000000      1.00000000      1.00000000      1.00000000      1.00000000      1.00000000      1.00000000      1.00000000      1.00000000      1.00000000      1.00000000      1.00000000      1.00000000      1.00000000      1.00000000      1.00000000
      1.00000000      1.00000000      1.00000000      1.00000000      1.00000000      1.00000000      1.00000000      1.00000000      1.00000000      1.00000000      1.00000000      1.00000000      1.00000000      1.00000000      1.00000000      1.00000000      1.00000000      1.00000000      1.00000000      1.00000000
      1.00000000      1.00000000      1.00000000      1.00000000</v>
    <i name="NUPDOWN">     -1.00000000</i>
    <i type="logical" name="LSORBIT"> F  </i>
    <v name="SAXIS">      0.00000000      0.00000000      1.00000000</v>
    <i type="logical" name="LSPIRAL"> F  </i>
    <v name="QSPIRAL">      0.00000000      0.00000000      0.00000000</v>
    <i type="logical" name="LZEROZ"> F  </i>
   </separator>
   <separator name="electronic exchange-correlation" >
    <i type="logical" name="LASPH"> F  </i>
   </separator>
   <separator name="electronic convergence" >
    <i type="int" name="NELM">    60</i>
    <i type="int" name="NELMDL">    -5</i>
    <i type="int" name="NELMIN">     8</i>
    <i name="ENINI">    400.00000000</i>
    <separator name="electronic convergence detail" >
     <i type="logical" name="LDIAG"> T  </i>
     <i type="logical" name="LSUBROT"> F  </i>
     <i name="WEIMIN">      0.00100000</i>
     <i name="EBREAK">      0.00000000</i>
     <i name="DEPER">      0.30000000</i>
     <i type="int" name="NRMM">     4</i>
     <i name="TIME">      0.40000000</i>
    </separator>
   </separator>
   <separator name="electronic mixer" >
    <i name="AMIX">      0.40000000</i>
    <i name="BMIX">      1.00000000</i>
    <i name="AMIN">      0.10000000</i>
    <i name="AMIX_MAG">      1.60000000</i>
    <i name="BMIX_MAG">      1.00000000</i>
    <separator name="electronic mixer details" >
     <i type="int" name="IMIX">     4</i>
     <i type="logical" name="MIXFIRST"> F  </i>
     <i type="int" name="MAXMIX">   -45</i>
     <i name="WC">    100.00000000</i>
     <i type="int" name="INIMIX">     1</i>
     <i type="int" name="MIXPRE">     1</i>
     <i type="int" name="MREMOVE">     5</i>
    </separator>
   </separator>
   <separator name="electronic dipolcorrection" >
    <i type="logical" name="LDIPOL"> F  </i>
    <i type="logical" name="LMONO"> F  </i>
    <i type="int" name="IDIPOL">     0</i>
    <i name="EPSILON">      1.00000000</i>
    <v name="DIPOL">   -100.00000000   -100.00000000   -100.00000000</v>
    <i name="EFIELD">      0.00000000</i>
    <i type="logical" name="LVACPOTAV"> F  </i>
   </separator>
  </separator>
  <separator name="grids" >
   <i type="int" name="NGX">    72</i>
   <i type="int" name="NGY">    70</i>
   <i type="int" name="NGZ">    70</i>
   <i type="int" name="NGXF">   144</i>
   <i type="int" name="NGYF">   140</i>
   <i type="int" name="NGZF">   140</i>
   <i type="logical" name="ADDGRID"> T  </i>
  </separator>
  <separator name="ionic" >
   <i type="int" name="NSW">    60</i>
   <i type="int" name="IBRION">     2</i>
   <i type="int" name="MDALGO">     0</i>
   <i type="int" name="ISIF">     2</i>
   <i name="PSTRESS">      0.00000000</i>
   <i name="EDIFFG">     -0.01000000</i>
   <i type="int" name="NFREE">     1</i>
   <i name="POTIM">      0.50000000</i>
   <i name="SMASS">     -3.00000000</i>
   <i name="SCALEE">      1.00000000</i>
  </separator>
  <separator name="ionic md" >
   <i name="TEBEG">      0.00010000</i>
   <i name="TEEND">      0.00010000</i>
   <i type="int" name="NBLOCK">     1</i>
   <i type="int" name="KBLOCK">    60</i>
   <i type="int" name="NPACO">   256</i>
   <i name="APACO">     10.00000000</i>
  </separator>
  <separator name="symmetry" >
   <i type="int" name="ISYM">     2</i>
   <i name="SYMPREC">      0.00001000</i>
  </separator>
  <separator name="dos" >
   <i type="int" name="LORBIT">     0</i>
   <v name="RWIGS">     -1.00000000</v>
   <i type="int" name="NEDOS">   301</i>
   <i name="EMIN">     10.00000000</i>
   <i name="EMAX">    -10.00000000</i>
   <i name="EFERMI">      0.00000000</i>
  </separator>
  <separator name="writing" >
   <i type="int" name="NWRITE">     2</i>
   <i type="logical" name="LWAVE"> F  </i>
   <i type="logical" name="LDOWNSAMPLE"> F  </i>
   <i type="logical" name="LCHARG"> F  </i>
   <i type="logical" name="LPARD"> F  </i>
   <i type="logical" name="LVTOT"> F  </i>
   <i type="logical" name="LVHAR"> F  </i>
   <i type="logical" name="LELF"> F  </i>
   <i type="logical" name="LOPTICS"> F  </i>
   <v name="STM">      0.00000000      0.00000000      0.00000000      0.00000000      0.00000000      0.00000000      0.00000000</v>
  </separator>
  <separator name="performance" >
   <i type="int" name="NPAR">     2</i>
   <i type="int" name="NSIM">     4</i>
   <i type="int" name="NBLK">    -1</i>
   <i type="logical" name="LPLANE"> T  </i>
   <i type="logical" name="LSCALAPACK"> T  </i>
   <i type="logical" name="LSCAAWARE"> F  </i>
   <i type="logical" name="LSCALU"> F  </i>
   <i type="logical" name="LASYNC"> F  </i>
   <i type="logical" name="LORBITALREAL"> F  </i>
  </separator>
  <separator name="miscellaneous" >
   <i type="int" name="IDIOT">     3</i>
   <i type="int" name="PHON_NSTRUCT">    -1</i>
   <i type="logical" name="LMUSIC"> F  </i>
   <v name="POMASS">     28.08500000</v>
   <v name="DARWINR">      0.00000000</v>
   <v name="DARWINV">      1.00000000</v>
   <i type="logical" name="LCORR"> T  </i>
  </separator>
  <i type="logical" name="GGA_COMPAT"> F  </i>
  <i type="logical" name="LBERRY"> F  </i>
  <i type="int" name="ICORELEVEL">     0</i>
  <i type="logical" name="LDAU"> F  </i>
  <i type="int" name="I_CONSTRAINED_M">     0</i>
  <separator name="electronic exchange-correlation" >
   <i type="string" name="GGA    ">PS</i>
   <i type="string" name="XC_C">1</i>
   <i type="int" name="VOSKOWN">     0</i>
   <i type="logical" name="LHFCALC"> F  </i>
   <i type="string" name="PRECFOCK"></i>
   <i type="logical" name="LSYMGRAD"> F  </i>
   <i type="logical" name="LHFONE"> F  </i>
   <i type="logical" name="LRHFCALC"> F  </i>
   <i type="logical" name="LTHOMAS"> F  </i>
   <i type="logical" name="LMODELHF"> F  </i>
   <i type="logical" name="LFOCKACE"> F  </i>
   <i name="ENCUT4O">     -1.00000000</i>
   <i type="int" name="EXXOEP">     0</i>
   <i type="int" name="FOURORBIT">     0</i>
   <i name="AEXX">      0.00000000</i>
   <i name="HFALPHA">      0.00000000</i>
   <i name="MCALPHA">      0.00000000</i>
   <i name="ALDAX">      1.00000000</i>
   <i name="AGGAX">      1.00000000</i>
   <i name="AMGGAX">      1.00000000</i>
   <i name="ALDAC">      1.00000000</i>
   <i name="AGGAC">      1.00000000</i>
   <i name="AMGGAC">      1.00000000</i>
   <i type="int" name="NKREDX">     1</i>
   <i type="int" name="NKREDY">     1</i>
   <i type="int" name="NKREDZ">     1</i>
   <i type="logical" name="SHIFTRED"> F  </i>
   <i type="logical" name="ODDONLY"> F  </i>
   <i type="logical" name="EVENONLY"> F  </i>
   <i type="int" name="LMAXFOCK">     0</i>
   <i type="int" name="NMAXFOCKAE">     0</i>
   <i type="logical" name="LFOCKAEDFT"> F  </i>
   <i name="HFSCREEN">      0.00000000</i>
   <i name="HFSCREENC">      0.00000000</i>
   <i type="int" name="NBANDSGWLOW">     0</i>
  </separator>
  <separator name="vdW DFT" >
   <i type="logical" name="LUSE_VDW"> F  </i>
   <i type="int" name="IVDW_NL">    -1</i>
   <i type="logical" name="LSPIN_VDW"> F  </i>
   <i name="ZAB_VDW">     -0.84910000</i>
   <i name="GAMMA_VDW">      1.39626340</i>
   <i name="ALPHA_VDW">      0.00000000</i>
   <i name="PARAM1">      0.12340000</i>
   <i name="PARAM2">      1.00000000</i>
   <i name="BPARAM">      6.30000000</i>
   <i name="CPARAM">      0.00930000</i>
  </separator>
  <separator name="model GW" >
   <i type="int" name="MODEL_GW">     0</i>
   <i name="MODEL_EPS0">     11.86305434</i>
   <i name="MODEL_ALPHA">      1.00000000</i>
  </separator>
  <separator name="linear response parameters" >
   <i type="logical" name="LEPSILON"> F  </i>
   <i type="logical" name="LRPA"> F  </i>
   <i type="logical" name="LNABLA"> F  </i>
   <i type="logical" name="LVEL"> F  </i>
   <i name="CSHIFT">      0.10000000</i>
   <i name="OMEGAMAX">     -1.00000000</i>
   <i name="DEG_THRESHOLD">      0.00200000</i>
   <i name="RTIME">     -0.10000000</i>
   <i name="WPLASMAI">      0.00000000</i>
   <v name="DFIELD">      0.00000000      0.00000000      0.00000000</v>
   <v name="WPLASMA">      0.00000000      0.00000000      0.00000000      0.00000000      0.00000000      0.00000000      0.00000000      0.00000000      0.00000000</v>
  </separator>
  <separator name="orbital magnetization" >
   <i type="logical" name="NUCIND"> F  </i>
   <v name="MAGPOS">      0.00000000      0.00000000      0.00000000</v>
   <i type="logical" name="LNICSALL"> T  </i>
   <i type="logical" name="ORBITALMAG"> F  </i>
   <i type="logical" name="LMAGBLOCH"> F  </i>
   <i type="logical" name="LCHIMAG"> F  </i>
   <i type="logical" name="LGAUGE"> T  </i>
   <i type="int" name="MAGATOM">     0</i>
   <v name="MAGDIPOL">      0.00000000      0.00000000      0.00000000</v>
   <v name="AVECCONST">      0.00000000      0.00000000      0.00000000</v>
  </separator>
  <separator name="response functions" >
   <i type="logical" name="LALL_IN_ONE"> F  </i>
   <i type="int" name="IALL_IN_ONE">    -1</i>
   <i type="int" name="NBANDS_WAVE">    -1</i>
   <i type="logical" name="LFINITE_TEMPERATURE"> F  </i>
   <i type="logical" name="LADDER"> F  </i>
   <i type="logical" name="LRPAFORCE"> F  </i>
   <i type="logical" name="LFXC"> F  </i>
   <i type="logical" name="LHARTREE"> T  </i>
   <i type="int" name="IBSE">     0</i>
   <v type="int" name="KPOINT">    -1     0     0     0</v>
   <i type="logical" name="LTCTC"> F  </i>
   <i type="logical" name="LTCTE"> F  </i>
   <i type="logical" name="LTETE"> F  </i>
   <i type="logical" name="LTRIPLET"> F  </i>
   <i type="logical" name="LFXCEPS"> F  </i>
   <i type="logical" name="LFXHEG"> F  </i>
   <i type="int" name="NATURALO">     2</i>
   <i type="logical" name="LHOLEGF"> F  </i>
   <i type="logical" name="L2ORDER"> F  </i>
   <i type="logical" name="LDMP1"> F  </i>
   <i type="logical" name="LMP2LT"> F  </i>
   <i type="logical" name="LSMP2LT"> F  </i>
   <i type="logical" name="LGWLF"> F  </i>
   <i name="ENCUTGW">     -1.60000002</i>
   <i name="ENCUTGWSOFT">     -1.60000002</i>
   <i name="ENCUTLF">     -1.00000000</i>
   <i type="logical" name="ESF_SPLINES"> F  </i>
   <i name="ESF_CONV">      0.01000000</i>
   <i type="int" name="ESF_NINTER">    15</i>
   <i type="int" name="LMAXMP2">    -1</i>
   <i name="SCISSOR">      0.00000000</i>
   <i type="int" name="NOMEGA">     0</i>
   <i type="int" name="NOMEGAR">     0</i>
   <i type="int" name="NBANDSGW">    -1</i>
   <i type="int" name="NBANDSO">    -1</i>
   <i type="int" name="NBANDSV">    -1</i>
   <i type="int" name="NELMGW">     1</i>
   <i type="int" name="NELMHF">     1</i>
   <i type="int" name="DIM">     3</i>
   <i type="int" name="IESPILON">     4</i>
   <i type="int" name="ANTIRES">     0</i>
   <i name="OMEGAMAX">    -30.00000000</i>
   <i name="OMEGAMIN">    -30.00000000</i>
   <i name="OMEGATL">   -200.00000000</i>
   <i type="int" name="OMEGAGRID">     0</i>
   <i name="CSHIFT">     -0.10000000</i>
   <i type="logical" name="LSELFENERGY"> F  </i>
   <i type="logical" name="LSPECTRAL"> F  </i>
   <i type="logical" name="LSPECTRALGW"> F  </i>
   <i type="logical" name="LSINGLES"> F  </i>
   <i type="logical" name="LFERMIGW"> F  </i>
   <i type="logical" name="ODDONLYGW"> F  </i>
   <i type="logical" name="EVENONLYGW"> F  </i>
   <i type="int" name="NKREDLFX">     1</i>
   <i type="int" name="NKREDLFY">     1</i>
   <i type="int" name="NKREDLFZ">     1</i>
   <i type="int" name="MAXMEM">  2800</i>
   <i type="int" name="TELESCOPE">     0</i>
   <i type="int" name="NTAUPAR">    -1</i>
   <i type="int" name="NOMEGAPAR">    -1</i>
   <i name="DAMP_NEWTON">      0.80000001</i>
   <i name="LAMBDA">      1.00000000</i>
  </separator>
  <separator name="External order field" >
   <i name="OFIELD_KAPPA">      0.00000000</i>
   <v name="OFIELD_K">      0.00000000      0.00000000      0.00000000</v>
   <i name="OFIELD_Q6_NEAR">      0.00000000</i>
   <i name="OFIELD_Q6_FAR">      0.00000000</i>
   <i name="OFIELD_A">      0.00000000</i>
  </separator>
  <separator name="optional k-points parameters" >
   <i type="int" name="KPOINTS_OPT_MODE">     1</i>
   <i type="logical" name="LKPOINTS_OPT"> F  </i>
  </separator>
 </parameters>
 <atominfo>
  <atoms>      64 </atoms>
  <types>       1 </types>
  <array name="atoms" >
   <dimension dim="1">ion</dimension>
   <field type="string">element</field>
   <field type="int">atomtype</field>
   <set>
    <rc><c>Si</c><c>   1</c></rc>
    <rc><c>Si</c><c>   1</c></rc>
    <rc><c>Si</c><c>   1</c></rc>
    <rc><c>Si</c><c>   1</c></rc>
    <rc><c>Si</c><c>   1</c></rc>
    <rc><c>Si</c><c>   1</c></rc>
    <rc><c>Si</c><c>   1</c></rc>
    <rc><c>Si</c><c>   1</c></rc>
    <rc><c>Si</c><c>   1</c></rc>
    <rc><c>Si</c><c>   1</c></rc>
    <rc><c>Si</c><c>   1</c></rc>
    <rc><c>Si</c><c>   1</c></rc>
    <rc><c>Si</c><c>   1</c></rc>
    <rc><c>Si</c><c>   1</c></rc>
    <rc><c>Si</c><c>   1</c></rc>
    <rc><c>Si</c><c>   1</c></rc>
    <rc><c>Si</c><c>   1</c></rc>
    <rc><c>Si</c><c>   1</c></rc>
    <rc><c>Si</c><c>   1</c></rc>
    <rc><c>Si</c><c>   1</c></rc>
    <rc><c>Si</c><c>   1</c></rc>
    <rc><c>Si</c><c>   1</c></rc>
    <rc><c>Si</c><c>   1</c></rc>
    <rc><c>Si</c><c>   1</c></rc>
    <rc><c>Si</c><c>   1</c></rc>
    <rc><c>Si</c><c>   1</c></rc>
    <rc><c>Si</c><c>   1</c></rc>
    <rc><c>Si</c><c>   1</c></rc>
    <rc><c>Si</c><c>   1</c></rc>
    <rc><c>Si</c><c>   1</c></rc>
    <rc><c>Si</c><c>   1</c></rc>
    <rc><c>Si</c><c>   1</c></rc>
    <rc><c>Si</c><c>   1</c></rc>
    <rc><c>Si</c><c>   1</c></rc>
    <rc><c>Si</c><c>   1</c></rc>
    <rc><c>Si</c><c>   1</c></rc>
    <rc><c>Si</c><c>   1</c></rc>
    <rc><c>Si</c><c>   1</c></rc>
    <rc><c>Si</c><c>   1</c></rc>
    <rc><c>Si</c><c>   1</c></rc>
    <rc><c>Si</c><c>   1</c></rc>
    <rc><c>Si</c><c>   1</c></rc>
    <rc><c>Si</c><c>   1</c></rc>
    <rc><c>Si</c><c>   1</c></rc>
    <rc><c>Si</c><c>   1</c></rc>
    <rc><c>Si</c><c>   1</c></rc>
    <rc><c>Si</c><c>   1</c></rc>
    <rc><c>Si</c><c>   1</c></rc>
    <rc><c>Si</c><c>   1</c></rc>
    <rc><c>Si</c><c>   1</c></rc>
    <rc><c>Si</c><c>   1</c></rc>
    <rc><c>Si</c><c>   1</c></rc>
    <rc><c>Si</c><c>   1</c></rc>
    <rc><c>Si</c><c>   1</c></rc>
    <rc><c>Si</c><c>   1</c></rc>
    <rc><c>Si</c><c>   1</c></rc>
    <rc><c>Si</c><c>   1</c></rc>
    <rc><c>Si</c><c>   1</c></rc>
    <rc><c>Si</c><c>   1</c></rc>
    <rc><c>Si</c><c>   1</c></rc>
    <rc><c>Si</c><c>   1</c></rc>
    <rc><c>Si</c><c>   1</c></rc>
    <rc><c>Si</c><c>   1</c></rc>
    <rc><c>Si</c><c>   1</c></rc>
   </set>
  </array>
  <array name="atomtypes" >
   <dimension dim="1">type</dimension>
   <field type="int">atomspertype</field>
   <field type="string">element</field>
   <field>mass</field>
   <field>valence</field>
   <field type="string">pseudopotential</field>
   <set>
    <rc><c>  64</c><c>Si</c><c>     28.08500000</c><c>      4.00000000</c><c>  PAW_PBE Si 05Jan2001                  </c></rc>
   </set>
  </array>
 </atominfo>
 <structure name="initialpos" >
  <crystal>
   <varray name="basis" >
    <v>      10.85225560       0.02699600       0.00000000 </v>
    <v>       0.02699600      10.79826459       0.00000000 </v>
    <v>       0.00000000       0.00000000      10.79826459 </v>
   </varray>
   <i name="volume">   1265.39246244 </i>
   <varray name="rec_basis" >
    <v>       0.09214732      -0.00023037       0.00000000 </v>
    <v>      -0.00023037       0.09260805       0.00000000 </v>
    <v>       0.00000000       0.00000000       0.09260747 </v>
   </varray>
  </crystal>
  <varray name="positions" >
   <v>       0.00000000       0.00000000       0.00000000 </v>
   <v>       0.00000000       0.00000000       0.50000000 </v>
   <v>       0.00000000       0.50000000       0.00000000 </v>
   <v>       0.00000000       0.50000000       0.50000000 </v>
   <v>       0.50000000       0.00000000       0.00000000 </v>
   <v>       0.50000000       0.00000000       0.50000000 </v>
   <v>       0.50000000       0.50000000       0.00000000 </v>
   <v>       0.50000000       0.50000000       0.50000000 </v>
   <v>       0.37500000       0.37500000       0.12500000 </v>
   <v>       0.37500000       0.37500000       0.62500000 </v>
   <v>       0.37500000       0.87500000       0.12500000 </v>
   <v>       0.37500000       0.87500000       0.62500000 </v>
   <v>       0.87500000       0.37500000       0.12500000 </v>
   <v>       0.87500000       0.37500000       0.62500000 </v>
   <v>       0.87500000       0.87500000       0.12500000 </v>
   <v>       0.87500000       0.87500000       0.62500000 </v>
   <v>       0.00000000       0.25000000       0.25000000 </v>
   <v>       0.00000000       0.25000000       0.75000000 </v>
   <v>       0.00000000       0.75000000       0.25000000 </v>
   <v>       0.00000000       0.75000000       0.75000000 </v>
   <v>       0.50000000       0.25000000       0.25000000 </v>
   <v>       0.50000000       0.25000000       0.75000000 </v>
   <v>       0.50000000       0.75000000       0.25000000 </v>
   <v>       0.50000000       0.75000000       0.75000000 </v>
   <v>       0.37500000       0.12500000       0.37500000 </v>
   <v>       0.37500000       0.12500000       0.87500000 </v>
   <v>       0.37500000       0.62500000       0.37500000 </v>
   <v>       0.37500000       0.62500000       0.87500000 </v>
   <v>       0.87500000       0.12500000       0.37500000 </v>
   <v>       0.87500000       0.12500000       0.87500000 </v>
   <v>       0.87500000       0.62500000       0.37500000 </v>
   <v>       0.87500000       0.62500000       0.87500000 </v>
   <v>       0.25000000       0.00000000       0.25000000 </v>
   <v>       0.25000000       0.00000000       0.75000000 </v>
   <v>       0.25000000       0.50000000       0.25000000 </v>
   <v>       0.25000000       0.50000000       0.75000000 </v>
   <v>       0.75000000       0.00000000       0.25000000 </v>
   <v>       0.75000000       0.00000000       0.75000000 </v>
   <v>       0.75000000       0.50000000       0.25000000 </v>
   <v>       0.75000000       0.50000000       0.75000000 </v>
   <v>       0.12500000       0.37500000       0.37500000 </v>
   <v>       0.12500000       0.37500000       0.87500000 </v>
   <v>       0.12500000       0.87500000       0.37500000 </v>
   <v>       0.12500000       0.87500000       0.87500000 </v>
   <v>       0.62500000       0.37500000       0.37500000 </v>
   <v>       0.62500000       0.37500000       0.87500000 </v>
   <v>       0.62500000       0.87500000       0.37500000 </v>
   <v>       0.62500000       0.87500000       0.87500000 </v>
   <v>       0.25000000       0.25000000       0.00000000 </v>
   <v>       0.25000000       0.25000000       0.50000000 </v>
   <v>       0.25000000       0.75000000       0.00000000 </v>
   <v>       0.25000000       0.75000000       0.50000000 </v>
   <v>       0.75000000       0.25000000       0.00000000 </v>
   <v>       0.75000000       0.25000000       0.50000000 </v>
   <v>       0.75000000       0.75000000       0.00000000 </v>
   <v>       0.75000000       0.75000000       0.50000000 </v>
   <v>       0.12500000       0.12500000       0.12500000 </v>
   <v>       0.12500000       0.12500000       0.62500000 </v>
   <v>       0.12500000       0.62500000       0.12500000 </v>
   <v>       0.12500000       0.62500000       0.62500000 </v>
   <v>       0.62500000       0.12500000       0.12500000 </v>
   <v>       0.62500000       0.12500000       0.62500000 </v>
   <v>       0.62500000       0.62500000       0.12500000 </v>
   <v>       0.62500000       0.62500000       0.62500000 </v>
  </varray>
 </structure>
 <calculation>
  <scstep>
   <time name="dav">    1.27    1.33</time>
   <time name="total">    1.43    1.50</time>
   <energy>
    <i name="alphaZ">    108.96554852 </i>
    <i name="ewald">  -7343.63942644 </i>
    <i name="hartreedc">   -346.24126530 </i>
    <i name="XCdc">   -557.13638573 </i>
    <i name="pawpsdc">   5598.62625415 </i>
    <i name="pawaedc">  -4492.17844134 </i>
    <i name="eentropy">      0.00877837 </i>
    <i name="bandstr">   1028.64418614 </i>
    <i name="atom">   6564.79586099 </i>
    <i name="e_fr_energy">    561.84510936 </i>
    <i name="e_wo_entrp">    561.83633099 </i>
    <i name="e_0_energy">    561.84218324 </i>
   </energy>
  </scstep>
  <scstep>
   <time name="dav">    1.36    1.37</time>
   <time name="total">    1.36    1.37</time>
   <energy>
    <i name="e_fr_energy">   -311.88285200 </i>
    <i name="e_wo_entrp">   -311.91199762 </i>
    <i name="e_0_energy">   -311.89256720 </i>
   </energy>
  </scstep>
  <scstep>
   <time name="dav">    1.38    1.39</time>
   <time name="total">    1.38    1.39</time>
   <energy>
    <i name="e_fr_energy">   -373.36445810 </i>
    <i name="e_wo_entrp">   -373.37237153 </i>
    <i name="e_0_energy">   -373.36709591 </i>
   </energy>
  </scstep>
  <scstep>
   <time name="dav">    1.36    1.38</time>
   <time name="total">    1.36    1.38</time>
   <energy>
    <i name="e_fr_energy">   -374.92026269 </i>
    <i name="e_wo_entrp">   -374.92868702 </i>
    <i name="e_0_energy">   -374.92307080 </i>
   </energy>
  </scstep>
  <scstep>
   <time name="dav">    1.33    1.34</time>
   <time name="total">    1.58    1.60</time>
   <energy>
    <i name="e_fr_energy">   -374.96964127 </i>
    <i name="e_wo_entrp">   -374.97803429 </i>
    <i name="e_0_energy">   -374.97243894 </i>
   </energy>
  </scstep>
  <scstep>
   <time name="diag">    0.13    0.13</time>
   <time name="diis">    0.70    0.70</time>
   <time name="orth">    0.02    0.02</time>
   <time name="total">    1.25    1.27</time>
   <energy>
    <i name="e_fr_energy">   -369.80684645 </i>
    <i name="e_wo_entrp">   -369.81580862 </i>
    <i name="e_0_energy">   -369.80983384 </i>
   </energy>
  </scstep>
  <scstep>
   <time name="diag">    0.14    0.14</time>
   <time name="diis">    0.70    0.71</time>
   <time name="orth">    0.02    0.02</time>
   <time name="total">    1.26    1.27</time>
   <energy>
    <i name="e_fr_energy">   -367.45910170 </i>
    <i name="e_wo_entrp">   -367.49072594 </i>
    <i name="e_0_energy">   -367.46964311 </i>
   </energy>
  </scstep>
  <scstep>
   <time name="diag">    0.14    0.14</time>
   <time name="diis">    0.70    0.70</time>
   <time name="orth">    0.02    0.02</time>
   <time name="total">    1.25    1.27</time>
   <energy>
    <i name="e_fr_energy">   -367.50083900 </i>
    <i name="e_wo_entrp">   -367.52958997 </i>
    <i name="e_0_energy">   -367.51042266 </i>
   </energy>
  </scstep>
  <scstep>
   <time name="diag">    0.14    0.14</time>
   <time name="diis">    0.71    0.71</time>
   <time name="orth">    0.02    0.02</time>
   <time name="total">    1.26    1.28</time>
   <energy>
    <i name="e_fr_energy">   -367.52033742 </i>
    <i name="e_wo_entrp">   -367.54976787 </i>
    <i name="e_0_energy">   -367.53014757 </i>
   </energy>
  </scstep>
  <scstep>
   <time name="diag">    0.14    0.14</time>
   <time name="diis">    0.73    0.73</time>
   <time name="orth">    0.02    0.02</time>
   <time name="total">    1.29    1.30</time>
   <energy>
    <i name="e_fr_energy">   -367.52368451 </i>
    <i name="e_wo_entrp">   -367.55313128 </i>
    <i name="e_0_energy">   -367.53350010 </i>
   </energy>
  </scstep>
  <scstep>
   <time name="diag">    0.14    0.14</time>
   <time name="diis">    0.69    0.70</time>
   <time name="orth">    0.02    0.02</time>
   <time name="total">    1.25    1.27</time>
   <energy>
    <i name="e_fr_energy">   -367.52139664 </i>
    <i name="e_wo_entrp">   -367.54988589 </i>
    <i name="e_0_energy">   -367.53089305 </i>
   </energy>
  </scstep>
  <scstep>
   <time name="diag">    0.13    0.14</time>
   <time name="diis">    0.71    0.72</time>
   <time name="orth">    0.02    0.02</time>
   <time name="total">    1.27    1.29</time>
   <energy>
    <i name="e_fr_energy">   -367.52143862 </i>
    <i name="e_wo_entrp">   -367.54988207 </i>
    <i name="e_0_energy">   -367.53091977 </i>
   </energy>
  </scstep>
  <scstep>
   <time name="diag">    0.14    0.14</time>
   <time name="diis">    0.74    0.75</time>
   <time name="orth">    0.02    0.02</time>
   <time name="total">    1.30    1.32</time>
   <energy>
    <i name="e_fr_energy">   -367.52150144 </i>
    <i name="e_wo_entrp">   -367.54994765 </i>
    <i name="e_0_energy">   -367.53098351 </i>
   </energy>
  </scstep>
  <scstep>
   <time name="diag">    0.13    0.13</time>
   <time name="diis">    0.70    0.70</time>
   <time name="orth">    0.02    0.02</time>
   <time name="total">    1.24    1.26</time>
   <energy>
    <i name="e_fr_energy">   -367.52125173 </i>
    <i name="e_wo_entrp">   -367.54967327 </i>
    <i name="e_0_energy">   -367.53072558 </i>
   </energy>
  </scstep>
  <scstep>
   <time name="diag">    0.14    0.14</time>
   <time name="diis">    0.70    0.70</time>
   <time name="orth">    0.02    0.02</time>
   <time name="total">    1.26    1.27</time>
   <energy>
    <i name="e_fr_energy">   -367.52144342 </i>
    <i name="e_wo_entrp">   -367.54980045 </i>
    <i name="e_0_energy">   -367.53089576 </i>
   </energy>
  </scstep>
  <scstep>
   <time name="diag">    0.14    0.14</time>
   <time name="diis">    0.69    0.69</time>
   <time name="orth">    0.02    0.02</time>
   <time name="total">    1.24    1.26</time>
   <energy>
    <i name="e_fr_energy">   -367.52166306 </i>
    <i name="e_wo_entrp">   -367.55002703 </i>
    <i name="e_0_energy">   -367.53111771 </i>
   </energy>
  </scstep>
  <scstep>
   <time name="diag">    0.13    0.13</time>
   <time name="diis">    0.70    0.70</time>
   <time name="orth">    0.02    0.02</time>
   <time name="total">    1.25    1.27</time>
   <energy>
    <i name="e_fr_energy">   -367.52176081 </i>
    <i name="e_wo_entrp">   -367.55012158 </i>
    <i name="e_0_energy">   -367.53121440 </i>
   </energy>
  </scstep>
  <scstep>
   <time name="diag">    0.13    0.13</time>
   <time name="diis">    0.69    0.71</time>
   <time name="orth">    0.02    0.02</time>
   <time name="total">    1.24    1.27</time>
   <energy>
    <i name="e_fr_energy">   -367.52179130 </i>
    <i name="e_wo_entrp">   -367.55013873 </i>
    <i name="e_0_energy">   -367.53124044 </i>
   </energy>
  </scstep>
  <scstep>
   <time name="diag">    0.13    0.13</time>
   <time name="diis">    0.62    0.62</time>
   <time name="orth">    0.02    0.02</time>
   <time name="total">    1.16    1.18</time>
   <energy>
    <i name="e_fr_energy">   -367.52180451 </i>
    <i name="e_wo_entrp">   -367.55014080 </i>
    <i name="e_0_energy">   -367.53124994 </i>
   </energy>
  </scstep>
  <scstep>
   <time name="diag">    0.13    0.13</time>
   <time name="diis">    0.52    0.52</time>
   <time name="orth">    0.02    0.02</time>
   <time name="total">    1.07    1.09</time>
   <energy>
    <i name="e_fr_energy">   -367.52180797 </i>
    <i name="e_wo_entrp">   -367.55013640 </i>
    <i name="e_0_energy">   -367.53125078 </i>
   </energy>
  </scstep>
  <scstep>
   <time name="diag">    0.13    0.13</time>
   <time name="diis">    0.45    0.45</time>
   <time name="orth">    0.02    0.02</time>
   <time name="total">    0.75    0.77</time>
   <energy>
    <i name="alphaZ">    108.96554852 </i>
    <i name="ewald">  -7343.63942644 </i>
    <i name="hartreedc">   -463.47933480 </i>
    <i name="XCdc">   -537.36054210 </i>
    <i name="pawpsdc">  28531.92564403 </i>
    <i name="pawaedc"> -27432.67291119 </i>
    <i name="eentropy">      0.02832718 </i>
    <i name="bandstr">    203.91502517 </i>
    <i name="atom">   6564.79586099 </i>
    <i name="e_fr_energy">   -367.52180864 </i>
    <i name="e_wo_entrp">   -367.55013582 </i>
    <i name="e_0_energy">   -367.53125103 </i>
   </energy>
  </scstep>
  <structure>
   <crystal>
    <varray name="basis" >
     <v>      10.85225560       0.02699600       0.00000000 </v>
     <v>       0.02699600      10.79826459       0.00000000 </v>
     <v>       0.00000000       0.00000000      10.79826459 </v>
    </varray>
    <i name="volume">   1265.39246244 </i>
    <varray name="rec_basis" >
     <v>       0.09214732      -0.00023037       0.00000000 </v>
     <v>      -0.00023037       0.09260805       0.00000000 </v>
     <v>       0.00000000       0.00000000       0.09260747 </v>
    </varray>
   </crystal>
   <varray name="positions" >
    <v>       0.00000000       0.00000000       0.00000000 </v>
    <v>       0.00000000       0.00000000       0.50000000 </v>
    <v>       0.00000000       0.50000000       0.00000000 </v>
    <v>       0.00000000       0.50000000       0.50000000 </v>
    <v>       0.50000000       0.00000000       0.00000000 </v>
    <v>       0.50000000       0.00000000       0.50000000 </v>
    <v>       0.50000000       0.50000000       0.00000000 </v>
    <v>       0.50000000       0.50000000       0.50000000 </v>
    <v>       0.37500000       0.37500000       0.12500000 </v>
    <v>       0.37500000       0.37500000       0.62500000 </v>
    <v>       0.37500000       0.87500000       0.12500000 </v>
    <v>       0.37500000       0.87500000       0.62500000 </v>
    <v>       0.87500000       0.37500000       0.12500000 </v>
    <v>       0.87500000       0.37500000       0.62500000 </v>
    <v>       0.87500000       0.87500000       0.12500000 </v>
    <v>       0.87500000       0.87500000       0.62500000 </v>
    <v>       0.00000000       0.25000000       0.25000000 </v>
    <v>       0.00000000       0.25000000       0.75000000 </v>
    <v>       0.00000000       0.75000000       0.25000000 </v>
    <v>       0.00000000       0.75000000       0.75000000 </v>
    <v>       0.50000000       0.25000000       0.25000000 </v>
    <v>       0.50000000       0.25000000       0.75000000 </v>
    <v>       0.50000000       0.75000000       0.25000000 </v>
    <v>       0.50000000       0.75000000       0.75000000 </v>
    <v>       0.37500000       0.12500000       0.37500000 </v>
    <v>       0.37500000       0.12500000       0.87500000 </v>
    <v>       0.37500000       0.62500000       0.37500000 </v>
    <v>       0.37500000       0.62500000       0.87500000 </v>
    <v>       0.87500000       0.12500000       0.37500000 </v>
    <v>       0.87500000       0.12500000       0.87500000 </v>
    <v>       0.87500000       0.62500000       0.37500000 </v>
    <v>       0.87500000       0.62500000       0.87500000 </v>
    <v>       0.25000000       0.00000000       0.25000000 </v>
    <v>       0.25000000       0.00000000       0.75000000 </v>
    <v>       0.25000000       0.50000000       0.25000000 </v>
    <v>       0.25000000       0.50000000       0.75000000 </v>
    <v>       0.75000000       0.00000000       0.25000000 </v>
    <v>       0.75000000       0.00000000       0.75000000 </v>
    <v>       0.75000000       0.50000000       0.25000000 </v>
    <v>       0.75000000       0.50000000       0.75000000 </v>
    <v>       0.12500000       0.37500000       0.37500000 </v>
    <v>       0.12500000       0.37500000       0.87500000 </v>
    <v>       0.12500000       0.87500000       0.37500000 </v>
    <v>       0.12500000       0.87500000       0.87500000 </v>
    <v>       0.62500000       0.37500000       0.37500000 </v>
    <v>       0.62500000       0.37500000       0.87500000 </v>
    <v>       0.62500000       0.87500000       0.37500000 </v>
    <v>       0.62500000       0.87500000       0.87500000 </v>
    <v>       0.25000000       0.25000000       0.00000000 </v>
    <v>       0.25000000       0.25000000       0.50000000 </v>
    <v>       0.25000000       0.75000000       0.00000000 </v>
    <v>       0.25000000       0.75000000       0.50000000 </v>
    <v>       0.75000000       0.25000000       0.00000000 </v>
    <v>       0.75000000       0.25000000       0.50000000 </v>
    <v>       0.75000000       0.75000000       0.00000000 </v>
    <v>       0.75000000       0.75000000       0.50000000 </v>
    <v>       0.12500000       0.12500000       0.12500000 </v>
    <v>       0.12500000       0.12500000       0.62500000 </v>
    <v>       0.12500000       0.62500000       0.12500000 </v>
    <v>       0.12500000       0.62500000       0.62500000 </v>
    <v>       0.62500000       0.12500000       0.12500000 </v>
    <v>       0.62500000       0.12500000       0.62500000 </v>
    <v>       0.62500000       0.62500000       0.12500000 </v>
    <v>       0.62500000       0.62500000       0.62500000 </v>
   </varray>
  </structure>
  <varray name="forces" >
   <v>      -0.00000000      -0.00000000       0.05264909 </v>
   <v>      -0.00000000      -0.00000000       0.05264909 </v>
   <v>      -0.00000000      -0.00000000       0.05264909 </v>
   <v>      -0.00000000      -0.00000000       0.05264909 </v>
   <v>      -0.00000000      -0.00000000       0.05264909 </v>
   <v>       0.00000000       0.00000000       0.05264909 </v>
   <v>       0.00000000       0.00000000       0.05264909 </v>
   <v>       0.00000000       0.00000000       0.05264909 </v>
   <v>      -0.00000000      -0.00000000      -0.05264909 </v>
   <v>      -0.00000000      -0.00000000      -0.05264909 </v>
   <v>      -0.00000000       0.00000000      -0.05264909 </v>
   <v>      -0.00000000      -0.00000000      -0.05264909 </v>
   <v>       0.00000000       0.00000000      -0.05264909 </v>
   <v>       0.00000000       0.00000000      -0.05264909 </v>
   <v>       0.00000000      -0.00000000      -0.05264909 </v>
   <v>       0.00000000      -0.00000000      -0.05264909 </v>
   <v>      -0.00000000      -0.00000000       0.05264909 </v>
   <v>      -0.00000000      -0.00000000       0.05264909 </v>
   <v>      -0.00000000      -0.00000000       0.05264909 </v>
   <v>      -0.00000000      -0.00000000       0.05264909 </v>
   <v>       0.00000000       0.00000000       0.05264909 </v>
   <v>       0.00000000       0.00000000       0.05264909 </v>
   <v>       0.00000000       0.00000000       0.05264909 </v>
   <v>       0.00000000       0.00000000       0.05264909 </v>
   <v>       0.00000000       0.00000000      -0.05264909 </v>
   <v>      -0.00000000       0.00000000      -0.05264909 </v>
   <v>      -0.00000000      -0.00000000      -0.05264909 </v>
   <v>       0.00000000      -0.00000000      -0.05264909 </v>
   <v>       0.00000000      -0.00000000      -0.05264909 </v>
   <v>       0.00000000       0.00000000      -0.05264909 </v>
   <v>       0.00000000       0.00000000      -0.05264909 </v>
   <v>       0.00000000       0.00000000      -0.05264909 </v>
   <v>      -0.00000000       0.00000000       0.05264909 </v>
   <v>      -0.00000000       0.00000000       0.05264909 </v>
   <v>      -0.00000000       0.00000000       0.05264909 </v>
   <v>      -0.00000000      -0.00000000       0.05264909 </v>
   <v>       0.00000000       0.00000000       0.05264909 </v>
   <v>       0.00000000       0.00000000       0.05264909 </v>
   <v>       0.00000000       0.00000000       0.05264909 </v>
   <v>       0.00000000       0.00000000       0.05264909 </v>
   <v>       0.00000000       0.00000000      -0.05264909 </v>
   <v>       0.00000000      -0.00000000      -0.05264909 </v>
   <v>       0.00000000      -0.00000000      -0.05264909 </v>
   <v>       0.00000000      -0.00000000      -0.05264909 </v>
   <v>      -0.00000000      -0.00000000      -0.05264909 </v>
   <v>      -0.00000000      -0.00000000      -0.05264909 </v>
   <v>      -0.00000000      -0.00000000      -0.05264909 </v>
   <v>      -0.00000000      -0.00000000      -0.05264909 </v>
   <v>      -0.00000000       0.00000000       0.05264909 </v>
   <v>      -0.00000000       0.00000000       0.05264909 </v>
   <v>       0.00000000      -0.00000000       0.05264909 </v>
   <v>      -0.00000000      -0.00000000       0.05264909 </v>
   <v>       0.00000000       0.00000000       0.05264909 </v>
   <v>       0.00000000       0.00000000       0.05264909 </v>
   <v>       0.00000000       0.00000000       0.05264909 </v>
   <v>       0.00000000       0.00000000       0.05264909 </v>
   <v>       0.00000000      -0.00000000      -0.05264909 </v>
   <v>       0.00000000      -0.00000000      -0.05264909 </v>
   <v>       0.00000000      -0.00000000      -0.05264909 </v>
   <v>       0.00000000      -0.00000000      -0.05264909 </v>
   <v>      -0.00000000      -0.00000000      -0.05264909 </v>
   <v>      -0.00000000      -0.00000000      -0.05264909 </v>
   <v>      -0.00000000       0.00000000      -0.05264909 </v>
   <v>      -0.00000000      -0.00000000      -0.05264909 </v>
  </varray>
  <varray name="stress" >
   <v>      11.93969240      -5.28759879       0.00000000 </v>
   <v>      -5.28759875      16.45338819       0.00000000 </v>
   <v>       0.00000000       0.00000000      16.41699949 </v>
  </varray>
  <energy>
   <i name="e_fr_energy">   -367.52180864 </i>
   <i name="e_wo_entrp">   -367.55013582 </i>
   <i name="e_0_energy">   -367.53125103 </i>
  </energy>
  <time name="totalsc">   30.08   30.54</time>
 </calculation>
 <calculation>
  <scstep>
   <time name="dav">    1.33    1.33</time>
   <time name="total">    1.75    1.75</time>
   <energy>
    <i name="alphaZ">    108.96554852 </i>
    <i name="ewald">  -7343.69365335 </i>
    <i name="hartreedc">   -463.45482226 </i>
    <i name="XCdc">   -537.36056189 </i>
    <i name="pawpsdc">  28540.22493710 </i>
    <i name="pawaedc"> -27440.97216488 </i>
    <i name="eentropy">      0.02838951 </i>
    <i name="bandstr">    203.94244851 </i>
    <i name="atom">   6564.79586099 </i>
    <i name="e_fr_energy">   -367.52401774 </i>
    <i name="e_wo_entrp">   -367.55240725 </i>
    <i name="e_0_energy">   -367.53348091 </i>
   </energy>
  </scstep>
  <scstep>
   <time name="diag">    0.14    0.14</time>
   <time name="diis">    0.70    0.70</time>
   <time name="orth">    0.02    0.02</time>
   <time name="total">    1.25    1.27</time>
   <energy>
    <i name="e_fr_energy">   -367.52457564 </i>
    <i name="e_wo_entrp">   -367.55296449 </i>
    <i name="e_0_energy">   -367.53403859 </i>
   </energy>
  </scstep>
  <scstep>
   <time name="diag">    0.14    0.14</time>
   <time name="diis">    0.71    0.71</time>
   <time name="orth">    0.02    0.02</time>
   <time name="total">    1.26    1.28</time>
   <energy>
    <i name="e_fr_energy">   -367.52466731 </i>
    <i name="e_wo_entrp">   -367.55305388 </i>
    <i name="e_0_energy">   -367.53412950 </i>
   </energy>
  </scstep>
  <scstep>
   <time name="diag">    0.14    0.14</time>
   <time name="diis">    0.71    0.71</time>
   <time name="orth">    0.02    0.02</time>
   <time name="total">    1.26    1.28</time>
   <energy>
    <i name="e_fr_energy">   -367.52466827 </i>
    <i name="e_wo_entrp">   -367.55305303 </i>
    <i name="e_0_energy">   -367.53412986 </i>
   </energy>
  </scstep>
  <scstep>
   <time name="diag">    0.13    0.13</time>
   <time name="diis">    0.70    0.70</time>
   <time name="orth">    0.02    0.02</time>
   <time name="total">    1.24    1.26</time>
   <energy>
    <i name="e_fr_energy">   -367.52466916 </i>
    <i name="e_wo_entrp">   -367.55305332 </i>
    <i name="e_0_energy">   -367.53413055 </i>
   </energy>
  </scstep>
  <scstep>
   <time name="diag">    0.14    0.14</time>
   <time name="diis">    0.55    0.55</time>
   <time name="orth">    0.02    0.02</time>
   <time name="total">    1.11    1.13</time>
   <energy>
    <i name="e_fr_energy">   -367.52466967 </i>
    <i name="e_wo_entrp">   -367.55305390 </i>
    <i name="e_0_energy">   -367.53413108 </i>
   </energy>
  </scstep>
  <scstep>
   <time name="diag">    0.13    0.13</time>
   <time name="diis">    0.44    0.45</time>
   <time name="orth">    0.02    0.02</time>
   <time name="total">    1.00    1.01</time>
   <energy>
    <i name="e_fr_energy">   -367.52466975 </i>
    <i name="e_wo_entrp">   -367.55305400 </i>
    <i name="e_0_energy">   -367.53413116 </i>
   </energy>
  </scstep>
  <scstep>
   <time name="diag">    0.13    0.13</time>
   <time name="diis">    0.42    0.42</time>
   <time name="orth">    0.02    0.02</time>
   <time name="total">    0.72    0.74</time>
   <energy>
    <i name="alphaZ">    108.96554852 </i>
    <i name="ewald">  -7343.69365335 </i>
    <i name="hartreedc">   -463.44062965 </i>
    <i name="XCdc">   -537.36253457 </i>
    <i name="pawpsdc">  28541.05329064 </i>
    <i name="pawaedc"> -27441.79929465 </i>
    <i name="eentropy">      0.02838425 </i>
    <i name="bandstr">    203.92835805 </i>
    <i name="atom">   6564.79586099 </i>
    <i name="e_fr_energy">   -367.52466977 </i>
    <i name="e_wo_entrp">   -367.55305402 </i>
    <i name="e_0_energy">   -367.53413118 </i>
   </energy>
  </scstep>
  <structure>
   <crystal>
    <varray name="basis" >
     <v>      10.85225560       0.02699600       0.00000000 </v>
     <v>       0.02699600      10.79826459       0.00000000 </v>
     <v>       0.00000000       0.00000000      10.79826459 </v>
    </varray>
    <i name="volume">   1265.39246244 </i>
    <varray name="rec_basis" >
     <v>       0.09214732      -0.00023037       0.00000000 </v>
     <v>      -0.00023037       0.09260805       0.00000000 </v>
     <v>       0.00000000       0.00000000       0.09260747 </v>
    </varray>
   </crystal>
   <varray name="positions" >
    <v>       1.00000000       1.00000000       0.00023522 </v>
    <v>       1.00000000       1.00000000       0.50023522 </v>
    <v>       1.00000000       0.50000000       0.00023522 </v>
    <v>       1.00000000       0.50000000       0.50023522 </v>
    <v>       0.50000000       1.00000000       0.00023522 </v>
    <v>       0.50000000       0.00000000       0.50023522 </v>
    <v>       0.50000000       0.50000000       0.00023522 </v>
    <v>       0.50000000       0.50000000       0.50023522 </v>
    <v>       0.37500000       0.37500000       0.12476478 </v>
    <v>       0.37500000       0.37500000       0.62476478 </v>
    <v>       0.37500000       0.87500000       0.12476478 </v>
    <v>       0.37500000       0.87500000       0.62476478 </v>
    <v>       0.87500000       0.37500000       0.12476478 </v>
    <v>       0.87500000       0.37500000       0.62476478 </v>
    <v>       0.87500000       0.87500000       0.12476478 </v>
    <v>       0.87500000       0.87500000       0.62476478 </v>
    <v>       1.00000000       0.25000000       0.25023522 </v>
    <v>       1.00000000       0.25000000       0.75023522 </v>
    <v>       1.00000000       0.75000000       0.25023522 </v>
    <v>       1.00000000       0.75000000       0.75023522 </v>
    <v>       0.50000000       0.25000000       0.25023522 </v>
    <v>       0.50000000       0.25000000       0.75023522 </v>
    <v>       0.50000000       0.75000000       0.25023522 </v>
    <v>       0.50000000       0.75000000       0.75023522 </v>
    <v>       0.37500000       0.12500000       0.37476478 </v>
    <v>       0.37500000       0.12500000       0.87476478 </v>
    <v>       0.37500000       0.62500000       0.37476478 </v>
    <v>       0.37500000       0.62500000       0.87476478 </v>
    <v>       0.87500000       0.12500000       0.37476478 </v>
    <v>       0.87500000       0.12500000       0.87476478 </v>
    <v>       0.87500000       0.62500000       0.37476478 </v>
    <v>       0.87500000       0.62500000       0.87476478 </v>
    <v>       0.25000000       0.00000000       0.25023522 </v>
    <v>       0.25000000       0.00000000       0.75023522 </v>
    <v>       0.25000000       0.50000000       0.25023522 </v>
    <v>       0.25000000       0.50000000       0.75023522 </v>
    <v>       0.75000000       0.00000000       0.25023522 </v>
    <v>       0.75000000       0.00000000       0.75023522 </v>
    <v>       0.75000000       0.50000000       0.25023522 </v>
    <v>       0.75000000       0.50000000       0.75023522 </v>
    <v>       0.12500000       0.37500000       0.37476478 </v>
    <v>       0.12500000       0.37500000       0.87476478 </v>
    <v>       0.12500000       0.87500000       0.37476478 </v>
    <v>       0.12500000       0.87500000       0.87476478 </v>
    <v>       0.62500000       0.37500000       0.37476478 </v>
    <v>       0.62500000       0.37500000       0.87476478 </v>
    <v>       0.62500000       0.87500000       0.37476478 </v>
    <v>       0.62500000       0.87500000       0.87476478 </v>
    <v>       0.25000000       0.25000000       0.00023522 </v>
    <v>       0.25000000       0.25000000       0.50023522 </v>
    <v>       0.25000000       0.75000000       0.00023522 </v>
    <v>       0.25000000       0.75000000       0.50023522 </v>
    <v>       0.75000000       0.25000000       0.00023522 </v>
    <v>       0.75000000       0.25000000       0.50023522 </v>
    <v>       0.75000000       0.75000000       0.00023522 </v>
    <v>       0.75000000       0.75000000       0.50023522 </v>
    <v>       0.12500000       0.12500000       0.12476478 </v>
    <v>       0.12500000       0.12500000       0.62476478 </v>
    <v>       0.12500000       0.62500000       0.12476478 </v>
    <v>       0.12500000       0.62500000       0.62476478 </v>
    <v>       0.62500000       0.12500000       0.12476478 </v>
    <v>       0.62500000       0.12500000       0.62476478 </v>
    <v>       0.62500000       0.62500000       0.12476478 </v>
    <v>       0.62500000       0.62500000       0.62476478 </v>
   </varray>
  </structure>
  <varray name="forces" >
   <v>       0.00000000       0.00000000      -0.01741680 </v>
   <v>       0.00000000       0.00000000      -0.01741680 </v>
   <v>       0.00000000       0.00000000      -0.01741680 </v>
   <v>       0.00000000       0.00000000      -0.01741680 </v>
   <v>      -0.00000000       0.00000000      -0.01741680 </v>
   <v>       0.00000000       0.00000000      -0.01741680 </v>
   <v>       0.00000000      -0.00000000      -0.01741680 </v>
   <v>       0.00000000      -0.00000000      -0.01741680 </v>
   <v>       0.00000000       0.00000000       0.01741680 </v>
   <v>       0.00000000       0.00000000       0.01741680 </v>
   <v>      -0.00000000       0.00000000       0.01741680 </v>
   <v>      -0.00000000       0.00000000       0.01741680 </v>
   <v>      -0.00000000      -0.00000000       0.01741680 </v>
   <v>      -0.00000000      -0.00000000       0.01741680 </v>
   <v>      -0.00000000      -0.00000000       0.01741680 </v>
   <v>      -0.00000000      -0.00000000       0.01741680 </v>
   <v>       0.00000000       0.00000000      -0.01741680 </v>
   <v>       0.00000000       0.00000000      -0.01741680 </v>
   <v>       0.00000000       0.00000000      -0.01741680 </v>
   <v>       0.00000000       0.00000000      -0.01741680 </v>
   <v>       0.00000000      -0.00000000      -0.01741680 </v>
   <v>       0.00000000      -0.00000000      -0.01741680 </v>
   <v>      -0.00000000      -0.00000000      -0.01741680 </v>
   <v>       0.00000000      -0.00000000      -0.01741680 </v>
   <v>      -0.00000000       0.00000000       0.01741680 </v>
   <v>       0.00000000       0.00000000       0.01741680 </v>
   <v>      -0.00000000       0.00000000       0.01741680 </v>
   <v>       0.00000000       0.00000000       0.01741680 </v>
   <v>      -0.00000000      -0.00000000       0.01741680 </v>
   <v>      -0.00000000      -0.00000000       0.01741680 </v>
   <v>      -0.00000000      -0.00000000       0.01741680 </v>
   <v>      -0.00000000      -0.00000000       0.01741680 </v>
   <v>      -0.00000000       0.00000000      -0.01741680 </v>
   <v>       0.00000000       0.00000000      -0.01741680 </v>
   <v>       0.00000000       0.00000000      -0.01741680 </v>
   <v>      -0.00000000       0.00000000      -0.01741680 </v>
   <v>      -0.00000000      -0.00000000      -0.01741680 </v>
   <v>      -0.00000000      -0.00000000      -0.01741680 </v>
   <v>      -0.00000000      -0.00000000      -0.01741680 </v>
   <v>      -0.00000000      -0.00000000      -0.01741680 </v>
   <v>       0.00000000      -0.00000000       0.01741680 </v>
   <v>      -0.00000000      -0.00000000       0.01741680 </v>
   <v>      -0.00000000      -0.00000000       0.01741680 </v>
   <v>      -0.00000000      -0.00000000       0.01741680 </v>
   <v>       0.00000000       0.00000000       0.01741680 </v>
   <v>       0.00000000       0.00000000       0.01741680 </v>
   <v>       0.00000000       0.00000000       0.01741680 </v>
   <v>       0.00000000       0.00000000       0.01741680 </v>
   <v>      -0.00000000       0.00000000      -0.01741680 </v>
   <v>       0.00000000      -0.00000000      -0.01741680 </v>
   <v>      -0.00000000       0.00000000      -0.01741680 </v>
   <v>      -0.00000000       0.00000000      -0.01741680 </v>
   <v>       0.00000000      -0.00000000      -0.01741680 </v>
   <v>      -0.00000000      -0.00000000      -0.01741680 </v>
   <v>      -0.00000000      -0.00000000      -0.01741680 </v>
   <v>      -0.00000000      -0.00000000      -0.01741680 </v>
   <v>      -0.00000000      -0.00000000       0.01741680 </v>
   <v>       0.00000000      -0.00000000       0.01741680 </v>
   <v>       0.00000000      -0.00000000       0.01741680 </v>
   <v>      -0.00000000      -0.00000000       0.01741680 </v>
   <v>       0.00000000       0.00000000       0.01741680 </v>
   <v>       0.00000000       0.00000000       0.01741680 </v>
   <v>       0.00000000       0.00000000       0.01741680 </v>
   <v>       0.00000000       0.00000000       0.01741680 </v>
  </varray>
  <varray name="stress" >
   <v>      11.92719476      -3.11173832       0.00000000 </v>
   <v>      -3.11173824      16.45380822       0.00000000 </v>
   <v>       0.00000000       0.00000000      16.36411350 </v>
  </varray>
  <energy>
   <i name="e_fr_energy">   -367.52466977 </i>
   <i name="e_wo_entrp">   -367.55305402 </i>
   <i name="e_0_energy">   -367.53413118 </i>
  </energy>
  <time name="totalsc">   13.21   13.37</time>
 </calculation>
 <calculation>
  <scstep>
   <time name="dav">    1.29    1.29</time>
   <time name="total">    1.68    1.68</time>
   <energy>
    <i name="alphaZ">    108.96554852 </i>
    <i name="ewald">  -7343.68204287 </i>
    <i name="hartreedc">   -463.44749197 </i>
    <i name="XCdc">   -537.36222217 </i>
    <i name="pawpsdc">  28541.03175005 </i>
    <i name="pawaedc"> -27441.77775189 </i>
    <i name="eentropy">      0.02836610 </i>
    <i name="bandstr">    203.92300148 </i>
    <i name="atom">   6564.79586099 </i>
    <i name="e_fr_energy">   -367.52498176 </i>
    <i name="e_wo_entrp">   -367.55334786 </i>
    <i name="e_0_energy">   -367.53443713 </i>
   </energy>
  </scstep>
  <scstep>
   <time name="diag">    0.14    0.14</time>
   <time name="diis">    0.70    0.71</time>
   <time name="orth">    0.02    0.02</time>
   <time name="total">    1.28    1.31</time>
   <energy>
    <i name="e_fr_energy">   -367.52501585 </i>
    <i name="e_wo_entrp">   -367.55338176 </i>
    <i name="e_0_energy">   -367.53447116 </i>
   </energy>
  </scstep>
  <scstep>
   <time name="diag">    0.13    0.13</time>
   <time name="diis">    0.70    0.71</time>
   <time name="orth">    0.02    0.02</time>
   <time name="total">    1.26    1.27</time>
   <energy>
    <i name="e_fr_energy">   -367.52502143 </i>
    <i name="e_wo_entrp">   -367.55338772 </i>
    <i name="e_0_energy">   -367.53447686 </i>
   </energy>
  </scstep>
  <scstep>
   <time name="diag">    0.13    0.13</time>
   <time name="diis">    0.64    0.64</time>
   <time name="orth">    0.02    0.02</time>
   <time name="total">    1.18    1.20</time>
   <energy>
    <i name="e_fr_energy">   -367.52502153 </i>
    <i name="e_wo_entrp">   -367.55338822 </i>
    <i name="e_0_energy">   -367.53447709 </i>
   </energy>
  </scstep>
  <scstep>
   <time name="diag">    0.13    0.13</time>
   <time name="diis">    0.46    0.46</time>
   <time name="orth">    0.02    0.02</time>
   <time name="total">    1.01    1.02</time>
   <energy>
    <i name="e_fr_energy">   -367.52502159 </i>
    <i name="e_wo_entrp">   -367.55338844 </i>
    <i name="e_0_energy">   -367.53447721 </i>
   </energy>
  </scstep>
  <scstep>
   <time name="diag">    0.13    0.13</time>
   <time name="diis">    0.44    0.44</time>
   <time name="orth">    0.02    0.02</time>
   <time name="total">    0.98    1.00</time>
   <energy>
    <i name="e_fr_energy">   -367.52502162 </i>
    <i name="e_wo_entrp">   -367.55338846 </i>
    <i name="e_0_energy">   -367.53447723 </i>
   </energy>
  </scstep>
  <scstep>
   <time name="diag">    0.13    0.13</time>
   <time name="diis">    0.36    0.36</time>
   <time name="orth">    0.02    0.02</time>
   <time name="total">    0.91    0.93</time>
   <energy>
    <i name="e_fr_energy">   -367.52502163 </i>
    <i name="e_wo_entrp">   -367.55338847 </i>
    <i name="e_0_energy">   -367.53447724 </i>
   </energy>
  </scstep>
  <scstep>
   <time name="diag">    0.13    0.13</time>
   <time name="diis">    0.31    0.31</time>
   <time name="orth">    0.02    0.02</time>
   <time name="total">    0.62    0.64</time>
   <energy>
    <i name="alphaZ">    108.96554852 </i>
    <i name="ewald">  -7343.68204287 </i>
    <i name="hartreedc">   -463.44785056 </i>
    <i name="XCdc">   -537.36206109 </i>
    <i name="pawpsdc">  28541.45035057 </i>
    <i name="pawaedc"> -27442.19654036 </i>
    <i name="eentropy">      0.02836684 </i>
    <i name="bandstr">    203.92334634 </i>
    <i name="atom">   6564.79586099 </i>
    <i name="e_fr_energy">   -367.52502163 </i>
    <i name="e_wo_entrp">   -367.55338847 </i>
    <i name="e_0_energy">   -367.53447724 </i>
   </energy>
  </scstep>
  <structure>
   <crystal>
    <varray name="basis" >
     <v>      10.85225560       0.02699600       0.00000000 </v>
     <v>       0.02699600      10.79826459       0.00000000 </v>
     <v>       0.00000000       0.00000000      10.79826459 </v>
    </varray>
    <i name="volume">   1265.39246244 </i>
    <varray name="rec_basis" >
     <v>       0.09214732      -0.00023037       0.00000000 </v>
     <v>      -0.00023037       0.09260805       0.00000000 </v>
     <v>       0.00000000       0.00000000       0.09260747 </v>
    </varray>
   </crystal>
   <varray name="positions" >
    <v>       0.00000000       0.00000000       0.00017675 </v>
    <v>       0.00000000       0.00000000       0.50017675 </v>
    <v>       0.00000000       0.50000000       0.00017675 </v>
    <v>       0.00000000       0.50000000       0.50017675 </v>
    <v>       0.50000000       0.00000000       0.00017675 </v>
    <v>       0.50000000       0.00000000       0.50017675 </v>
    <v>       0.50000000       0.50000000       0.00017675 </v>
    <v>       0.50000000       0.50000000       0.50017675 </v>
    <v>       0.37500000       0.37500000       0.12482325 </v>
    <v>       0.37500000       0.37500000       0.62482325 </v>
    <v>       0.37500000       0.87500000       0.12482325 </v>
    <v>       0.37500000       0.87500000       0.62482325 </v>
    <v>       0.87500000       0.37500000       0.12482325 </v>
    <v>       0.87500000       0.37500000       0.62482325 </v>
    <v>       0.87500000       0.87500000       0.12482325 </v>
    <v>       0.87500000       0.87500000       0.62482325 </v>
    <v>       0.00000000       0.25000000       0.25017675 </v>
    <v>       0.00000000       0.25000000       0.75017675 </v>
    <v>       0.00000000       0.75000000       0.25017675 </v>
    <v>       0.00000000       0.75000000       0.75017675 </v>
    <v>       0.50000000       0.25000000       0.25017675 </v>
    <v>       0.50000000       0.25000000       0.75017675 </v>
    <v>       0.50000000       0.75000000       0.25017675 </v>
    <v>       0.50000000       0.75000000       0.75017675 </v>
    <v>       0.37500000       0.12500000       0.37482325 </v>
    <v>       0.37500000       0.12500000       0.87482325 </v>
    <v>       0.37500000       0.62500000       0.37482325 </v>
    <v>       0.37500000       0.62500000       0.87482325 </v>
    <v>       0.87500000       0.12500000       0.37482325 </v>
    <v>       0.87500000       0.12500000       0.87482325 </v>
    <v>       0.87500000       0.62500000       0.37482325 </v>
    <v>       0.87500000       0.62500000       0.87482325 </v>
    <v>       0.25000000       0.00000000       0.25017675 </v>
    <v>       0.25000000       0.00000000       0.75017675 </v>
    <v>       0.25000000       0.50000000       0.25017675 </v>
    <v>       0.25000000       0.50000000       0.75017675 </v>
    <v>       0.75000000       0.00000000       0.25017675 </v>
    <v>       0.75000000       0.00000000       0.75017675 </v>
    <v>       0.75000000       0.50000000       0.25017675 </v>
    <v>       0.75000000       0.50000000       0.75017675 </v>
    <v>       0.12500000       0.37500000       0.37482325 </v>
    <v>       0.12500000       0.37500000       0.87482325 </v>
    <v>       0.12500000       0.87500000       0.37482325 </v>
    <v>       0.12500000       0.87500000       0.87482325 </v>
    <v>       0.62500000       0.37500000       0.37482325 </v>
    <v>       0.62500000       0.37500000       0.87482325 </v>
    <v>       0.62500000       0.87500000       0.37482325 </v>
    <v>       0.62500000       0.87500000       0.87482325 </v>
    <v>       0.25000000       0.25000000       0.00017675 </v>
    <v>       0.25000000       0.25000000       0.50017675 </v>
    <v>       0.25000000       0.75000000       0.00017675 </v>
    <v>       0.25000000       0.75000000       0.50017675 </v>
    <v>       0.75000000       0.25000000       0.00017675 </v>
    <v>       0.75000000       0.25000000       0.50017675 </v>
    <v>       0.75000000       0.75000000       0.00017675 </v>
    <v>       0.75000000       0.75000000       0.50017675 </v>
    <v>       0.12500000       0.12500000       0.12482325 </v>
    <v>       0.12500000       0.12500000       0.62482325 </v>
    <v>       0.12500000       0.62500000       0.12482325 </v>
    <v>       0.12500000       0.62500000       0.62482325 </v>
    <v>       0.62500000       0.12500000       0.12482325 </v>
    <v>       0.62500000       0.12500000       0.62482325 </v>
    <v>       0.62500000       0.62500000       0.12482325 </v>
    <v>       0.62500000       0.62500000       0.62482325 </v>
   </varray>
  </structure>
  <varray name="forces" >
   <v>       0.00000000       0.00000000      -0.00001504 </v>
   <v>       0.00000000      -0.00000000      -0.00001504 </v>
   <v>       0.00000000       0.00000000      -0.00001504 </v>
   <v>       0.00000000      -0.00000000      -0.00001504 </v>
   <v>      -0.00000000      -0.00000000      -0.00001504 </v>
   <v>      -0.00000000      -0.00000000      -0.00001504 </v>
   <v>      -0.00000000      -0.00000000      -0.00001504 </v>
   <v>      -0.00000000      -0.00000000      -0.00001504 </v>
   <v>       0.00000000       0.00000000       0.00001504 </v>
   <v>       0.00000000       0.00000000       0.00001504 </v>
   <v>      -0.00000000       0.00000000       0.00001504 </v>
   <v>       0.00000000       0.00000000       0.00001504 </v>
   <v>      -0.00000000      -0.00000000       0.00001504 </v>
   <v>      -0.00000000      -0.00000000       0.00001504 </v>
   <v>      -0.00000000      -0.00000000       0.00001504 </v>
   <v>      -0.00000000       0.00000000       0.00001504 </v>
   <v>       0.00000000      -0.00000000      -0.00001504 </v>
   <v>       0.00000000       0.00000000      -0.00001504 </v>
   <v>       0.00000000       0.00000000      -0.00001504 </v>
   <v>       0.00000000       0.00000000      -0.00001504 </v>
   <v>      -0.00000000      -0.00000000      -0.00001504 </v>
   <v>      -0.00000000      -0.00000000      -0.00001504 </v>
   <v>      -0.00000000      -0.00000000      -0.00001504 </v>
   <v>      -0.00000000      -0.00000000      -0.00001504 </v>
   <v>      -0.00000000       0.00000000       0.00001504 </v>
   <v>       0.00000000       0.00000000       0.00001504 </v>
   <v>       0.00000000       0.00000000       0.00001504 </v>
   <v>       0.00000000       0.00000000       0.00001504 </v>
   <v>      -0.00000000       0.00000000       0.00001504 </v>
   <v>      -0.00000000      -0.00000000       0.00001504 </v>
   <v>       0.00000000       0.00000000       0.00001504 </v>
   <v>      -0.00000000      -0.00000000       0.00001504 </v>
   <v>      -0.00000000       0.00000000      -0.00001504 </v>
   <v>       0.00000000       0.00000000      -0.00001504 </v>
   <v>       0.00000000       0.00000000      -0.00001504 </v>
   <v>       0.00000000       0.00000000      -0.00001504 </v>
   <v>      -0.00000000      -0.00000000      -0.00001504 </v>
   <v>       0.00000000      -0.00000000      -0.00001504 </v>
   <v>      -0.00000000       0.00000000      -0.00001504 </v>
   <v>      -0.00000000       0.00000000      -0.00001504 </v>
   <v>      -0.00000000      -0.00000000       0.00001504 </v>
   <v>      -0.00000000      -0.00000000       0.00001504 </v>
   <v>      -0.00000000      -0.00000000       0.00001504 </v>
   <v>      -0.00000000      -0.00000000       0.00001504 </v>
   <v>       0.00000000       0.00000000       0.00001504 </v>
   <v>       0.00000000       0.00000000       0.00001504 </v>
   <v>       0.00000000       0.00000000       0.00001504 </v>
   <v>       0.00000000       0.00000000       0.00001504 </v>
   <v>       0.00000000       0.00000000      -0.00001504 </v>
   <v>       0.00000000       0.00000000      -0.00001504 </v>
   <v>       0.00000000       0.00000000      -0.00001504 </v>
   <v>      -0.00000000       0.00000000      -0.00001504 </v>
   <v>      -0.00000000      -0.00000000      -0.00001504 </v>
   <v>      -0.00000000      -0.00000000      -0.00001504 </v>
   <v>      -0.00000000       0.00000000      -0.00001504 </v>
   <v>      -0.00000000      -0.00000000      -0.00001504 </v>
   <v>      -0.00000000      -0.00000000       0.00001504 </v>
   <v>      -0.00000000      -0.00000000       0.00001504 </v>
   <v>      -0.00000000      -0.00000000       0.00001504 </v>
   <v>      -0.00000000      -0.00000000       0.00001504 </v>
   <v>       0.00000000       0.00000000       0.00001504 </v>
   <v>       0.00000000       0.00000000       0.00001504 </v>
   <v>       0.00000000      -0.00000000       0.00001504 </v>
   <v>       0.00000000       0.00000000       0.00001504 </v>
  </varray>
  <varray name="stress" >
   <v>      11.93009449      -3.64913906       0.00000000 </v>
   <v>      -3.64913898      16.45723936       0.00000000 </v>
   <v>       0.00000000       0.00000000      16.38761548 </v>
  </varray>
  <energy>
   <i name="e_fr_energy">   -367.52502163 </i>
   <i name="e_wo_entrp">   -367.55338847 </i>
   <i name="e_0_energy">   -367.53447724 </i>
  </energy>
  <time name="totalsc">   12.40   12.54</time>
  <eigenvalues>
   <array>
    <dimension dim="1">band</dimension>
    <dimension dim="2">kpoint</dimension>
    <dimension dim="3">spin</dimension>
    <field>eigene</field>
    <field>occ</field>
    <set>
     <set comment="spin 1">
      <set comment="kpoint 1">
       <r>   -6.1579    1.0000 </r>
       <r>   -5.0661    1.0000 </r>
       <r>   -5.0661    1.0000 </r>
       <r>   -5.0568    1.0000 </r>
       <r>   -5.0568    1.0000 </r>
       <r>   -5.0568    1.0000 </r>
       <r>   -5.0568    1.0000 </r>
       <r>   -4.0937    1.0000 </r>
       <r>   -4.0937    1.0000 </r>
       <r>   -4.0817    1.0000 </r>
       <r>   -4.0817    1.0000 </r>
       <r>   -4.0817    1.0000 </r>
       <r>   -4.0817    1.0000 </r>
       <r>   -4.0752    1.0000 </r>
       <r>   -4.0751    1.0000 </r>
       <r>   -4.0751    1.0000 </r>
       <r>   -4.0751    1.0000 </r>
       <r>   -4.0696    1.0000 </r>
       <r>   -4.0696    1.0000 </r>
       <r>   -3.7883    1.0000 </r>
       <r>   -3.7883    1.0000 </r>
       <r>   -3.7632    1.0000 </r>
       <r>   -3.7632    1.0000 </r>
       <r>   -1.9710    1.0000 </r>
       <r>   -1.9710    1.0000 </r>
       <r>   -1.9496    1.0000 </r>
       <r>   -1.9407    1.0000 </r>
       <r>   -1.9407    1.0000 </r>
       <r>   -1.9321    1.0000 </r>
       <r>   -1.7921    1.0000 </r>
       <r>   -1.7921    1.0000 </r>
       <r>   -1.7814    1.0000 </r>
       <r>   -1.7814    1.0000 </r>
       <r>   -1.7783    1.0000 </r>
       <r>   -1.7783    1.0000 </r>
       <r>   -1.7783    1.0000 </r>
       <r>   -1.7783    1.0000 </r>
       <r>   -1.7646    1.0000 </r>
       <r>   -1.7646    1.0000 </r>
       <r>   -1.7542    1.0000 </r>
       <r>   -1.7542    1.0000 </r>
       <r>   -1.1609    1.0000 </r>
       <r>   -1.1609    1.0000 </r>
       <r>   -1.1504    1.0000 </r>
       <r>   -1.1504    1.0000 </r>
       <r>    0.3914    1.0000 </r>
       <r>    0.3914    1.0000 </r>
       <r>    0.3914    1.0000 </r>
       <r>    0.3914    1.0000 </r>
       <r>    0.4067    1.0000 </r>
       <r>    0.4067    1.0000 </r>
       <r>    0.4093    1.0000 </r>
       <r>    0.4093    1.0000 </r>
       <r>    0.4093    1.0000 </r>
       <r>    0.4093    1.0000 </r>
       <r>    0.4120    1.0000 </r>
       <r>    0.4120    1.0000 </r>
       <r>    1.9509    1.0000 </r>
       <r>    1.9509    1.0000 </r>
       <r>    1.9532    1.0000 </r>
       <r>    1.9532    1.0000 </r>
       <r>    1.9566    1.0000 </r>
       <r>    1.9566    1.0000 </r>
       <r>    1.9566    1.0000 </r>
       <r>    1.9566    1.0000 </r>
       <r>    1.9623    1.0000 </r>
       <r>    1.9623    1.0000 </r>
       <r>    1.9649    1.0000 </r>
       <r>    1.9649    1.0000 </r>
       <r>    2.0470    1.0000 </r>
       <r>    2.0470    1.0000 </r>
       <r>    2.0470    1.0000 </r>
       <r>    2.0470    1.0000 </r>
       <r>    2.0702    1.0000 </r>
       <r>    2.0702    1.0000 </r>
       <r>    2.0749    1.0000 </r>
       <r>    2.0749    1.0000 </r>
       <r>    2.0749    1.0000 </r>
       <r>    2.0749    1.0000 </r>
       <r>    2.0792    1.0000 </r>
       <r>    2.0792    1.0000 </r>
       <r>    2.3789    1.0000 </r>
       <r>    2.3789    1.0000 </r>
       <r>    2.4146    1.0000 </r>
       <r>    2.4146    1.0000 </r>
       <r>    2.4149    1.0000 </r>
       <r>    2.4149    1.0000 </r>
       <r>    2.9660    1.0000 </r>
       <r>    2.9994    1.0000 </r>
       <r>    2.9994    1.0000 </r>
       <r>    3.0330    1.0000 </r>
       <r>    3.0380    1.0000 </r>
       <r>    3.0380    1.0000 </r>
       <r>    3.9459    1.0000 </r>
       <r>    3.9459    1.0000 </r>
       <r>    3.9723    1.0000 </r>
       <r>    3.9723    1.0000 </r>
       <r>    3.9835    1.0000 </r>
       <r>    3.9835    1.0000 </r>
       <r>    4.0079    1.0000 </r>
       <r>    4.0079    1.0000 </r>
       <r>    4.0080    1.0000 </r>
       <r>    4.0080    1.0000 </r>
       <r>    4.0102    1.0000 </r>
       <r>    4.0102    1.0000 </r>
       <r>    4.5325    1.0000 </r>
       <r>    4.5325    1.0000 </r>
       <r>    4.5556    1.0000 </r>
       <r>    4.5556    1.0000 </r>
       <r>    4.5556    1.0000 </r>
       <r>    4.5556    1.0000 </r>
       <r>    4.5792    1.0000 </r>
       <r>    4.5792    1.0000 </r>
       <r>    4.5960    1.0000 </r>
       <r>    4.5960    1.0000 </r>
       <r>    4.5960    1.0000 </r>
       <r>    4.5960    1.0000 </r>
       <r>    4.6617    1.0000 </r>
       <r>    4.6618    1.0000 </r>
       <r>    4.6989    1.0000 </r>
       <r>    4.6989    1.0000 </r>
       <r>    4.7209    1.0000 </r>
       <r>    4.7209    1.0000 </r>
       <r>    4.7411    1.0000 </r>
       <r>    4.7411    1.0000 </r>
       <r>    5.8843    1.0142 </r>
       <r>    5.9321    1.0246 </r>
       <r>    5.9451    1.0276 </r>
       <r>    6.4323   -0.0169 </r>
       <r>    6.4701   -0.0337 </r>
       <r>    6.4701   -0.0337 </r>
       <r>    6.5080   -0.0344 </r>
       <r>    6.5101   -0.0341 </r>
       <r>    6.5101   -0.0341 </r>
       <r>    6.9276   -0.0000 </r>
       <r>    6.9276   -0.0000 </r>
       <r>    6.9279   -0.0000 </r>
       <r>    6.9279   -0.0000 </r>
       <r>    6.9678   -0.0000 </r>
       <r>    6.9678   -0.0000 </r>
       <r>    7.4023   -0.0000 </r>
       <r>    7.4023   -0.0000 </r>
       <r>    7.4548   -0.0000 </r>
       <r>    7.4548   -0.0000 </r>
       <r>    8.2485   -0.0000 </r>
       <r>    8.2485   -0.0000 </r>
       <r>    8.2756   -0.0000 </r>
       <r>    8.2756   -0.0000 </r>
       <r>    8.2756   -0.0000 </r>
       <r>    8.2756   -0.0000 </r>
       <r>    8.3030   -0.0000 </r>
       <r>    8.3030   -0.0000 </r>
       <r>    8.3224   -0.0000 </r>
       <r>    8.3224   -0.0000 </r>
       <r>    8.3224   -0.0000 </r>
       <r>    8.3224   -0.0000 </r>
       <r>    8.4153   -0.0000 </r>
       <r>    8.4332   -0.0000 </r>
       <r>    8.4740   -0.0000 </r>
       <r>    8.9358   -0.0000 </r>
       <r>    8.9385   -0.0000 </r>
       <r>    8.9430   -0.0000 </r>
      </set>
      <set comment="kpoint 2">
       <r>   -5.8826    1.0000 </r>
       <r>   -5.8826    1.0000 </r>
       <r>   -4.8124    1.0000 </r>
       <r>   -4.8124    1.0000 </r>
       <r>   -4.8062    1.0000 </r>
       <r>   -4.8062    1.0000 </r>
       <r>   -4.8062    1.0000 </r>
       <r>   -4.8062    1.0000 </r>
       <r>   -4.7999    1.0000 </r>
       <r>   -4.7999    1.0000 </r>
       <r>   -3.9486    1.0000 </r>
       <r>   -3.9486    1.0000 </r>
       <r>   -3.9486    1.0000 </r>
       <r>   -3.9486    1.0000 </r>
       <r>   -3.9330    1.0000 </r>
       <r>   -3.9330    1.0000 </r>
       <r>   -3.9330    1.0000 </r>
       <r>   -3.9330    1.0000 </r>
       <r>   -3.7405    1.0000 </r>
       <r>   -3.7405    1.0000 </r>
       <r>   -3.0059    1.0000 </r>
       <r>   -3.0059    1.0000 </r>
       <r>   -2.9901    1.0000 </r>
       <r>   -2.9901    1.0000 </r>
       <r>   -2.9901    1.0000 </r>
       <r>   -2.9901    1.0000 </r>
       <r>   -2.9742    1.0000 </r>
       <r>   -2.9742    1.0000 </r>
       <r>   -1.8693    1.0000 </r>
       <r>   -1.8693    1.0000 </r>
       <r>   -1.8685    1.0000 </r>
       <r>   -1.8685    1.0000 </r>
       <r>   -1.8488    1.0000 </r>
       <r>   -1.8488    1.0000 </r>
       <r>   -1.8482    1.0000 </r>
       <r>   -1.8482    1.0000 </r>
       <r>   -0.6897    1.0000 </r>
       <r>   -0.6897    1.0000 </r>
       <r>   -0.6846    1.0000 </r>
       <r>   -0.6846    1.0000 </r>
       <r>   -0.6846    1.0000 </r>
       <r>   -0.6846    1.0000 </r>
       <r>   -0.6797    1.0000 </r>
       <r>   -0.6797    1.0000 </r>
       <r>   -0.5546    1.0000 </r>
       <r>   -0.5546    1.0000 </r>
       <r>   -0.5546    1.0000 </r>
       <r>   -0.5546    1.0000 </r>
       <r>   -0.5373    1.0000 </r>
       <r>   -0.5373    1.0000 </r>
       <r>   -0.5373    1.0000 </r>
       <r>   -0.5373    1.0000 </r>
       <r>    0.1261    1.0000 </r>
       <r>    0.1261    1.0000 </r>
       <r>    1.5838    1.0000 </r>
       <r>    1.5838    1.0000 </r>
       <r>    1.5859    1.0000 </r>
       <r>    1.5859    1.0000 </r>
       <r>    1.5859    1.0000 </r>
       <r>    1.5859    1.0000 </r>
       <r>    1.5880    1.0000 </r>
       <r>    1.5880    1.0000 </r>
       <r>    1.6100    1.0000 </r>
       <r>    1.6100    1.0000 </r>
       <r>    1.6155    1.0000 </r>
       <r>    1.6155    1.0000 </r>
       <r>    1.6155    1.0000 </r>
       <r>    1.6155    1.0000 </r>
       <r>    1.6216    1.0000 </r>
       <r>    1.6216    1.0000 </r>
       <r>    2.3881    1.0000 </r>
       <r>    2.3881    1.0000 </r>
       <r>    2.4077    1.0000 </r>
       <r>    2.4077    1.0000 </r>
       <r>    2.4125    1.0000 </r>
       <r>    2.4125    1.0000 </r>
       <r>    2.4323    1.0000 </r>
       <r>    2.4323    1.0000 </r>
       <r>    3.1275    1.0000 </r>
       <r>    3.1275    1.0000 </r>
       <r>    3.1352    1.0000 </r>
       <r>    3.1352    1.0000 </r>
       <r>    3.1352    1.0000 </r>
       <r>    3.1352    1.0000 </r>
       <r>    3.1422    1.0000 </r>
       <r>    3.1422    1.0000 </r>
       <r>    3.2345    1.0000 </r>
       <r>    3.2345    1.0000 </r>
       <r>    3.2511    1.0000 </r>
       <r>    3.2511    1.0000 </r>
       <r>    3.2511    1.0000 </r>
       <r>    3.2511    1.0000 </r>
       <r>    3.2678    1.0000 </r>
       <r>    3.2678    1.0000 </r>
       <r>    3.2853    1.0000 </r>
       <r>    3.2853    1.0000 </r>
       <r>    3.2854    1.0000 </r>
       <r>    3.2854    1.0000 </r>
       <r>    3.3668    1.0000 </r>
       <r>    3.3668    1.0000 </r>
       <r>    3.3668    1.0000 </r>
       <r>    3.3668    1.0000 </r>
       <r>    3.4030    1.0000 </r>
       <r>    3.4030    1.0000 </r>
       <r>    3.4030    1.0000 </r>
       <r>    3.4030    1.0000 </r>
       <r>    4.4451    1.0000 </r>
       <r>    4.4451    1.0000 </r>
       <r>    4.4574    1.0000 </r>
       <r>    4.4574    1.0000 </r>
       <r>    4.4574    1.0000 </r>
       <r>    4.4574    1.0000 </r>
       <r>    4.4700    1.0000 </r>
       <r>    4.4700    1.0000 </r>
       <r>    4.5728    1.0000 </r>
       <r>    4.5728    1.0000 </r>
       <r>    4.6537    1.0000 </r>
       <r>    4.6537    1.0000 </r>
       <r>    4.6537    1.0000 </r>
       <r>    4.6537    1.0000 </r>
       <r>    4.6670    1.0000 </r>
       <r>    4.6670    1.0000 </r>
       <r>    4.6670    1.0000 </r>
       <r>    4.6670    1.0000 </r>
       <r>    5.1045    1.0000 </r>
       <r>    5.1045    1.0000 </r>
       <r>    5.1055    1.0000 </r>
       <r>    5.1055    1.0000 </r>
       <r>    6.4321   -0.0168 </r>
       <r>    6.4321   -0.0168 </r>
       <r>    7.3286   -0.0000 </r>
       <r>    7.3286   -0.0000 </r>
       <r>    7.7099   -0.0000 </r>
       <r>    7.7099   -0.0000 </r>
[...]
      </set>
     </set>
    </set>
   </array>
  </eigenvalues>
  <separator name="orbital magnetization" >
   <v name="MAGDIPOLOUT">      0.00000000      0.00000000      0.00000000</v>
  </separator>
  <dos>
   <i name="efermi">      6.24543063 </i>
   <total>
    <array>
     <dimension dim="1">gridpoints</dimension>
     <dimension dim="2">spin</dimension>
     <field>energy</field>
     <field>total</field>
     <field>integrated</field>
     <set>
      <set comment="spin 1">
       <r>    -8.1579     0.0000     0.0000 </r>
       <r>    -8.0928     0.0000     0.0000 </r>
       <r>    -8.0276     0.0000     0.0000 </r>
       <r>    -7.9625     0.0000     0.0000 </r>
       <r>    -7.8973     0.0000     0.0000 </r>
       <r>    -7.8322     0.0000     0.0000 </r>
       <r>    -7.7670    -0.0000    -0.0000 </r>
       <r>    -7.7019    -0.0000    -0.0000 </r>
       <r>    -7.6367    -0.0000    -0.0000 </r>
       <r>    -7.5716    -0.0000    -0.0000 </r>
       <r>    -7.5064    -0.0000    -0.0000 </r>
       <r>    -7.4413    -0.0000    -0.0000 </r>
       <r>    -7.3761    -0.0000    -0.0000 </r>
       <r>    -7.3110    -0.0000    -0.0000 </r>
       <r>    -7.2458    -0.0000    -0.0000 </r>
       <r>    -7.1807    -0.0000    -0.0000 </r>
       <r>    -7.1155    -0.0000    -0.0000 </r>
       <r>    -7.0504    -0.0000    -0.0000 </r>
       <r>    -6.9852    -0.0000    -0.0000 </r>
       <r>    -6.9201    -0.0000    -0.0000 </r>
       <r>    -6.8549    -0.0000    -0.0000 </r>
       <r>    -6.7898    -0.0001    -0.0000 </r>
       <r>    -6.7246    -0.0007    -0.0001 </r>
       <r>    -6.6595    -0.0034    -0.0003 </r>
       <r>    -6.5943    -0.0121    -0.0011 </r>
       <r>    -6.5292    -0.0316    -0.0031 </r>
       <r>    -6.4640    -0.0563    -0.0068 </r>
       <r>    -6.3989    -0.0493    -0.0100 </r>
       <r>    -6.3337     0.0525    -0.0066 </r>
       <r>    -6.2686     0.2679     0.0109 </r>
       <r>    -6.2035     0.5102     0.0441 </r>
       <r>    -6.1383     0.7271     0.0915 </r>
       <r>    -6.0732     1.1742     0.1680 </r>
       <r>    -6.0080     2.2827     0.3167 </r>
       <r>    -5.9429     3.9638     0.5749 </r>
       <r>    -5.8777     5.3971     0.9265 </r>
       <r>    -5.8126     6.1465     1.3270 </r>
       <r>    -5.7474     7.0974     1.7894 </r>
       <r>    -5.6823     9.1918     2.3882 </r>
       <r>    -5.6171    11.4906     3.1368 </r>
       <r>    -5.5520    12.0226     3.9200 </r>
       <r>    -5.4868    10.5749     4.6090 </r>
       <r>    -5.4217     8.9274     5.1906 </r>
       <r>    -5.3565     8.1272     5.7201 </r>
       <r>    -5.2914     7.3637     6.1998 </r>
       <r>    -5.2262     5.9391     6.5867 </r>
       <r>    -5.1611     4.5829     6.8853 </r>
       <r>    -5.0959     4.2708     7.1635 </r>
       <r>    -5.0308     5.3936     7.5149 </r>
       <r>    -4.9656     8.5978     8.0750 </r>
       <r>    -4.9005    14.4396     9.0158 </r>
       <r>    -4.8353    21.3162    10.4045 </r>
       <r>    -4.7702    26.0355    12.1007 </r>
       <r>    -4.7050    27.6041    13.8990 </r>
       <r>    -4.6399    27.8234    15.7117 </r>
       <r>    -4.5747    27.0926    17.4767 </r>
       <r>    -4.5096    23.0404    18.9778 </r>
       <r>    -4.4444    14.8057    19.9423 </r>
       <r>    -4.3793     5.5941    20.3068 </r>
       <r>    -4.3141    -0.3410    20.2846 </r>
       <r>    -4.2490    -1.0209    20.2180 </r>
       <r>    -4.1838     3.4126    20.4404 </r>
       <r>    -4.1187    11.8316    21.2112 </r>
       <r>    -4.0536    21.8925    22.6374 </r>
       <r>    -3.9884    29.7800    24.5776 </r>
       <r>    -3.9233    31.8523    26.6527 </r>
       <r>    -3.8581    27.4508    28.4411 </r>
       <r>    -3.7930    19.8330    29.7332 </r>
       <r>    -3.7278    13.9567    30.6424 </r>
       <r>    -3.6627    13.5490    31.5251 </r>
       <r>    -3.5975    19.5176    32.7967 </r>
       <r>    -3.5324    29.4150    34.7130 </r>
       <r>    -3.4672    38.5253    37.2229 </r>
       <r>    -3.4021    43.0457    40.0272 </r>
       <r>    -3.3369    42.4117    42.7903 </r>
       <r>    -3.2718    38.2225    45.2804 </r>
       <r>    -3.2066    32.2946    47.3844 </r>
       <r>    -3.1415    26.8470    49.1334 </r>
       <r>    -3.0763    24.3909    50.7224 </r>
       <r>    -3.0112    24.8017    52.3382 </r>
       <r>    -2.9460    24.0651    53.9060 </r>
       <r>    -2.8809    18.6706    55.1224 </r>
       <r>    -2.8157    10.0324    55.7760 </r>
       <r>    -2.7506     2.5321    55.9409 </r>
       <r>    -2.6854    -1.3101    55.8556 </r>
       <r>    -2.6203    -1.9205    55.7305 </r>
       <r>    -2.5551    -0.3044    55.7106 </r>
       <r>    -2.4900     3.2729    55.9239 </r>
       <r>    -2.4248     8.0525    56.4485 </r>
       <r>    -2.3597    11.6200    57.2055 </r>
       <r>    -2.2945    11.3664    57.9460 </r>
       <r>    -2.2294     7.2361    58.4174 </r>
       <r>    -2.1642     2.3369    58.5697 </r>
       <r>    -2.0991     0.9027    58.6285 </r>
       <r>    -2.0340     5.8792    59.0115 </r>
       <r>    -1.9688    17.0903    60.1249 </r>
       <r>    -1.9037    30.1182    62.0871 </r>
       <r>    -1.8385    37.8616    64.5537 </r>
       <r>    -1.7734    35.4910    66.8659 </r>
       <r>    -1.7082    24.5490    68.4652 </r>
       <r>    -1.6431    11.5821    69.2198 </r>
       <r>    -1.5779     2.9461    69.4117 </r>
       <r>    -1.5128     1.1298    69.4853 </r>
       <r>    -1.4476     4.5944    69.7846 </r>
       <r>    -1.3825     9.4603    70.4009 </r>
       <r>    -1.3173    11.8997    71.1762 </r>
       <r>    -1.2522    10.6808    71.8720 </r>
       <r>    -1.1870     8.0586    72.3970 </r>
       <r>    -1.1219     7.8684    72.9096 </r>
       <r>    -1.0567    12.1535    73.7014 </r>
       <r>    -0.9916    18.8458    74.9292 </r>
       <r>    -0.9264    23.1772    76.4392 </r>
       <r>    -0.8613    22.9385    77.9336 </r>
       <r>    -0.7961    21.9379    79.3628 </r>
       <r>    -0.7310    26.4060    81.0831 </r>
       <r>    -0.6658    38.1676    83.5697 </r>
       <r>    -0.6007    52.0140    86.9583 </r>
       <r>    -0.5355    58.8554    90.7926 </r>
       <r>    -0.4704    52.2135    94.1943 </r>
       <r>    -0.4052    34.0737    96.4141 </r>
       <r>    -0.3401    14.2730    97.3440 </r>
       <r>    -0.2749     2.9412    97.5356 </r>
       <r>    -0.2098     3.6513    97.7735 </r>
       <r>    -0.1446    12.5361    98.5902 </r>
       <r>    -0.0795    21.7208   100.0052 </r>
       <r>    -0.0143    24.6040   101.6082 </r>
       <r>     0.0508    20.2652   102.9284 </r>
       <r>     0.1159    12.9408   103.7715 </r>
       <r>     0.1811     7.2809   104.2458 </r>
       <r>     0.2462     5.2941   104.5907 </r>
       <r>     0.3114     7.0939   105.0529 </r>
       <r>     0.3765    12.1689   105.8457 </r>
       <r>     0.4417    19.3022   107.1032 </r>
       <r>     0.5068    26.0598   108.8009 </r>
       <r>     0.5720    28.9783   110.6888 </r>
       <r>     0.6371    25.5057   112.3505 </r>
       <r>     0.7023    16.7367   113.4408 </r>
       <r>     0.7674     7.1922   113.9094 </r>
       <r>     0.8326     0.9504   113.9713 </r>
       <r>     0.8977    -1.2790   113.8880 </r>
       <r>     0.9629    -1.2402   113.8072 </r>
       <r>     1.0280    -0.7405   113.7590 </r>
       <r>     1.0932    -0.6474   113.7168 </r>
       <r>     1.1583    -1.2015   113.6385 </r>
       <r>     1.2235    -2.1935   113.4956 </r>
       <r>     1.2886    -2.3004   113.3457 </r>
       <r>     1.3538     1.6328   113.4521 </r>
       <r>     1.4189    13.2493   114.3153 </r>
       <r>     1.4841    32.2622   116.4171 </r>
       <r>     1.5492    50.8234   119.7282 </r>
       <r>     1.6144    57.3364   123.4636 </r>
       <r>     1.6795    47.0436   126.5284 </r>
       <r>     1.7447    27.9600   128.3499 </r>
       <r>     1.8098    13.9721   129.2602 </r>
       <r>     1.8750    12.3660   130.0658 </r>
       <r>     1.9401    18.9896   131.3030 </r>
       <r>     2.0053    24.3016   132.8862 </r>
       <r>     2.0704    23.0131   134.3854 </r>
       <r>     2.1356    18.9694   135.6213 </r>
       <r>     2.2007    21.9637   137.0522 </r>
       <r>     2.2658    38.8685   139.5844 </r>
       <r>     2.3310    65.5789   143.8568 </r>
       <r>     2.3961    87.1984   149.5376 </r>
       <r>     2.4613    88.6994   155.3162 </r>
       <r>     2.5264    67.7629   159.7309 </r>
       <r>     2.5916    36.6509   162.1186 </r>
       <r>     2.6567    10.8266   162.8240 </r>
       <r>     2.7219    -2.8346   162.6393 </r>
       <r>     2.7870    -6.6944   162.2032 </r>
       <r>     2.8522    -4.7981   161.8906 </r>
       <r>     2.9173     2.6690   162.0645 </r>
       <r>     2.9825    17.9288   163.2325 </r>
       <r>     3.0476    40.2044   165.8518 </r>
       <r>     3.1128    63.1359   169.9650 </r>
       <r>     3.1779    78.5362   175.0815 </r>
       <r>     3.2431    82.3392   180.4457 </r>
       <r>     3.3082    76.1619   185.4076 </r>
       <r>     3.3734    64.1353   189.5859 </r>
       <r>     3.4385    50.2929   192.8624 </r>
       <r>     3.5037    39.2277   195.4180 </r>
       <r>     3.5688    35.8607   197.7543 </r>
       <r>     3.6340    40.4764   200.3913 </r>
       <r>     3.6991    45.3674   203.3469 </r>
       <r>     3.7643    41.7909   206.0695 </r>
       <r>     3.8294    30.7592   208.0734 </r>
       <r>     3.8946    22.3092   209.5268 </r>
       <r>     3.9597    23.2657   211.0425 </r>
       <r>     4.0249    29.9808   212.9957 </r>
       <r>     4.0900    34.7554   215.2600 </r>
       <r>     4.1552    35.5261   217.5745 </r>
       <r>     4.2203    35.8620   219.9108 </r>
       <r>     4.2854    38.0598   222.3904 </r>
       <r>     4.3506    41.0203   225.0628 </r>
       <r>     4.4157    44.1851   227.9414 </r>
       <r>     4.4809    48.8509   231.1239 </r>
       <r>     4.5460    54.4754   234.6729 </r>
       <r>     4.6112    56.5523   238.3572 </r>
       <r>     4.6763    50.1188   241.6224 </r>
       <r>     4.7415    35.1319   243.9112 </r>
       <r>     4.8066    17.5447   245.0542 </r>
       <r>     4.8718     5.0463   245.3829 </r>
       <r>     4.9369     2.1902   245.5256 </r>
       <r>     5.0021     8.5188   246.0806 </r>
       <r>     5.0672    19.0186   247.3196 </r>
       <r>     5.1324    26.3717   249.0377 </r>
       <r>     5.1975    25.4692   250.6970 </r>
       <r>     5.2627    17.2198   251.8188 </r>
       <r>     5.3278     7.2832   252.2933 </r>
       <r>     5.3930     1.0700   252.3630 </r>
       <r>     5.4581     0.5062   252.3960 </r>
       <r>     5.5233     4.2909   252.6755 </r>
       <r>     5.5884     9.2636   253.2790 </r>
       <r>     5.6536    11.9549   254.0579 </r>
       <r>     5.7187    10.8005   254.7615 </r>
       <r>     5.7839     7.2985   255.2370 </r>
       <r>     5.8490     4.2132   255.5115 </r>
       <r>     5.9142     2.7759   255.6923 </r>
       <r>     5.9793     2.2066   255.8361 </r>
       <r>     6.0445     1.4261   255.9290 </r>
       <r>     6.1096     0.3635   255.9527 </r>
       <r>     6.1748    -0.1849   255.9406 </r>
       <r>     6.2399     0.7425   255.9890 </r>
       <r>     6.3051     3.5913   256.2230 </r>
       <r>     6.3702     7.5997   256.7181 </r>
       <r>     6.4353    10.7354   257.4175 </r>
       <r>     6.5005    10.9911   258.1335 </r>
       <r>     6.5656     8.0989   258.6612 </r>
       <r>     6.6308     3.8023   258.9089 </r>
       <r>     6.6959     0.5587   258.9453 </r>
       <r>     6.7611     0.2797   258.9635 </r>
       <r>     6.8262     3.7244   259.2062 </r>
       <r>     6.8914     9.7513   259.8414 </r>
       <r>     6.9565    14.9984   260.8186 </r>
       <r>     7.0217    16.0496   261.8642 </r>
       <r>     7.0868    13.3339   262.7329 </r>
       <r>     7.1520    11.9381   263.5106 </r>
       <r>     7.2171    16.6050   264.5924 </r>
       <r>     7.2823    25.6399   266.2628 </r>
       <r>     7.3474    31.3859   268.3075 </r>
       <r>     7.4126    27.8135   270.1195 </r>
       <r>     7.4777    16.9511   271.2239 </r>
       <r>     7.5429     7.5188   271.7137 </r>
       <r>     7.6080     8.1787   272.2465 </r>
       <r>     7.6732    21.2292   273.6296 </r>
       <r>     7.7383    40.0762   276.2405 </r>
       <r>     7.8035    52.9020   279.6870 </r>
       <r>     7.8686    52.0008   283.0748 </r>
       <r>     7.9338    40.7491   285.7295 </r>
       <r>     7.9989    30.2652   287.7012 </r>
       <r>     8.0641    29.5326   289.6252 </r>
       <r>     8.1292    39.5263   292.2003 </r>
       <r>     8.1944    54.6339   295.7596 </r>
       <r>     8.2595    66.8889   300.1173 </r>
       <r>     8.3247    70.0714   304.6824 </r>
       <r>     8.3898    62.9072   308.7807 </r>
       <r>     8.4550    49.0875   311.9787 </r>
       <r>     8.5201    34.0246   314.1953 </r>
       <r>     8.5852    21.8809   315.6208 </r>
       <r>     8.6504    14.5305   316.5675 </r>
       <r>     8.7155    11.8349   317.3385 </r>
       <r>     8.7807    12.8702   318.1770 </r>
       <r>     8.8458    16.5027   319.2521 </r>
       <r>     8.9110    20.2884   320.5738 </r>
       <r>     8.9761    20.6187   321.9171 </r>
       <r>     9.0413    15.8625   322.9505 </r>
       <r>     9.1064     8.4331   323.4999 </r>
       <r>     9.1716     2.4212   323.6577 </r>
       <r>     9.2367    -0.0973   323.6513 </r>
       <r>     9.3019     0.1294   323.6598 </r>
       <r>     9.3670     1.2190   323.7392 </r>
       <r>     9.4322     1.7894   323.8558 </r>
       <r>     9.4973     1.5049   323.9538 </r>
       <r>     9.5625     0.7903   324.0053 </r>
       <r>     9.6276     0.1912   324.0177 </r>
       <r>     9.6928    -0.0756   324.0128 </r>
       <r>     9.7579    -0.1055   324.0059 </r>
       <r>     9.8231    -0.0603   324.0020 </r>
       <r>     9.8882    -0.0230   324.0005 </r>
       <r>     9.9534    -0.0064   324.0001 </r>
       <r>    10.0185    -0.0014   324.0000 </r>
       <r>    10.0837    -0.0002   324.0000 </r>
       <r>    10.1488    -0.0000   324.0000 </r>
       <r>    10.2140    -0.0000   324.0000 </r>
       <r>    10.2791    -0.0000   324.0000 </r>
       <r>    10.3443    -0.0000   324.0000 </r>
       <r>    10.4094    -0.0000   324.0000 </r>
       <r>    10.4746    -0.0000   324.0000 </r>
       <r>    10.5397    -0.0000   324.0000 </r>
       <r>    10.6048    -0.0000   324.0000 </r>
       <r>    10.6700    -0.0000   324.0000 </r>
       <r>    10.7351     0.0000   324.0000 </r>
       <r>    10.8003     0.0000   324.0000 </r>
       <r>    10.8654     0.0000   324.0000 </r>
       <r>    10.9306     0.0000   324.0000 </r>
       <r>    10.9957     0.0000   324.0000 </r>
       <r>    11.0609     0.0000   324.0000 </r>
       <r>    11.1260     0.0000   324.0000 </r>
       <r>    11.1912     0.0000   324.0000 </r>
       <r>    11.2563     0.0000   324.0000 </r>
       <r>    11.3215     0.0000   324.0000 </r>
       <r>    11.3866     0.0000   324.0000 </r>
      </set>
     </set>
    </array>
   </total>
  </dos>
 </calculation>
 <structure name="finalpos" >
  <crystal>
   <varray name="basis" >
    <v>      10.85225560       0.02699600       0.00000000 </v>
    <v>       0.02699600      10.79826459       0.00000000 </v>
    <v>       0.00000000       0.00000000      10.79826459 </v>
   </varray>
   <i name="volume">   1265.39246244 </i>
   <varray name="rec_basis" >
    <v>       0.09214732      -0.00023037       0.00000000 </v>
    <v>      -0.00023037       0.09260805       0.00000000 </v>
    <v>       0.00000000       0.00000000       0.09260747 </v>
   </varray>
  </crystal>
  <varray name="positions" >
   <v>       0.00000000       0.00000000       0.00017675 </v>
   <v>       0.00000000       0.00000000       0.50017675 </v>
   <v>       0.00000000       0.50000000       0.00017675 </v>
   <v>       0.00000000       0.50000000       0.50017675 </v>
   <v>       0.50000000       0.00000000       0.00017675 </v>
   <v>       0.50000000       0.00000000       0.50017675 </v>
   <v>       0.50000000       0.50000000       0.00017675 </v>
   <v>       0.50000000       0.50000000       0.50017675 </v>
   <v>       0.37500000       0.37500000       0.12482325 </v>
   <v>       0.37500000       0.37500000       0.62482325 </v>
   <v>       0.37500000       0.87500000       0.12482325 </v>
   <v>       0.37500000       0.87500000       0.62482325 </v>
   <v>       0.87500000       0.37500000       0.12482325 </v>
   <v>       0.87500000       0.37500000       0.62482325 </v>
   <v>       0.87500000       0.87500000       0.12482325 </v>
   <v>       0.87500000       0.87500000       0.62482325 </v>
   <v>       0.00000000       0.25000000       0.25017675 </v>
   <v>       0.00000000       0.25000000       0.75017675 </v>
   <v>       0.00000000       0.75000000       0.25017675 </v>
   <v>       0.00000000       0.75000000       0.75017675 </v>
   <v>       0.50000000       0.25000000       0.25017675 </v>
   <v>       0.50000000       0.25000000       0.75017675 </v>
   <v>       0.50000000       0.75000000       0.25017675 </v>
   <v>       0.50000000       0.75000000       0.75017675 </v>
   <v>       0.37500000       0.12500000       0.37482325 </v>
   <v>       0.37500000       0.12500000       0.87482325 </v>
   <v>       0.37500000       0.62500000       0.37482325 </v>
   <v>       0.37500000       0.62500000       0.87482325 </v>
   <v>       0.87500000       0.12500000       0.37482325 </v>
   <v>       0.87500000       0.12500000       0.87482325 </v>
   <v>       0.87500000       0.62500000       0.37482325 </v>
   <v>       0.87500000       0.62500000       0.87482325 </v>
   <v>       0.25000000       0.00000000       0.25017675 </v>
   <v>       0.25000000       0.00000000       0.75017675 </v>
   <v>       0.25000000       0.50000000       0.25017675 </v>
   <v>       0.25000000       0.50000000       0.75017675 </v>
   <v>       0.75000000       0.00000000       0.25017675 </v>
   <v>       0.75000000       0.00000000       0.75017675 </v>
   <v>       0.75000000       0.50000000       0.25017675 </v>
   <v>       0.75000000       0.50000000       0.75017675 </v>
   <v>       0.12500000       0.37500000       0.37482325 </v>
   <v>       0.12500000       0.37500000       0.87482325 </v>
   <v>       0.12500000       0.87500000       0.37482325 </v>
   <v>       0.12500000       0.87500000       0.87482325 </v>
   <v>       0.62500000       0.37500000       0.37482325 </v>
   <v>       0.62500000       0.37500000       0.87482325 </v>
   <v>       0.62500000       0.87500000       0.37482325 </v>
   <v>       0.62500000       0.87500000       0.87482325 </v>
   <v>       0.25000000       0.25000000       0.00017675 </v>
   <v>       0.25000000       0.25000000       0.50017675 </v>
   <v>       0.25000000       0.75000000       0.00017675 </v>
   <v>       0.25000000       0.75000000       0.50017675 </v>
   <v>       0.75000000       0.25000000       0.00017675 </v>
   <v>       0.75000000       0.25000000       0.50017675 </v>
   <v>       0.75000000       0.75000000       0.00017675 </v>
   <v>       0.75000000       0.75000000       0.50017675 </v>
   <v>       0.12500000       0.12500000       0.12482325 </v>
   <v>       0.12500000       0.12500000       0.62482325 </v>
   <v>       0.12500000       0.62500000       0.12482325 </v>
   <v>       0.12500000       0.62500000       0.62482325 </v>
   <v>       0.62500000       0.12500000       0.12482325 </v>
   <v>       0.62500000       0.12500000       0.62482325 </v>
   <v>       0.62500000       0.62500000       0.12482325 </v>
   <v>       0.62500000       0.62500000       0.62482325 </v>
  </varray>
 </structure>
</modeling>
