       N       E                     dE             d eps       ncg     rms          rms(c)
DAV:   1     0.566739530067E+03    0.56674E+03   -0.84356E+04  2592   0.106E+03
DAV:   2    -0.310153037400E+03   -0.87689E+03   -0.83183E+03  3096   0.173E+02
DAV:   3    -0.373157819217E+03   -0.63005E+02   -0.61817E+02  3136   0.411E+01
DAV:   4    -0.374742955411E+03   -0.15851E+01   -0.15729E+01  3120   0.794E+00
DAV:   5    -0.374796459652E+03   -0.53504E-01   -0.53389E-01  3112   0.134E+00    0.291E+01
RMM:   6    -0.369408133282E+03    0.53883E+01   -0.27509E+00  2592   0.259E+00    0.175E+01
RMM:   7    -0.366996435565E+03    0.24117E+01   -0.69921E+00  2631   0.415E+00    0.102E+00
RMM:   8    -0.367039879966E+03   -0.43444E-01   -0.69617E-01  2632   0.159E+00    0.514E-01
RMM:   9    -0.367060697207E+03   -0.20817E-01   -0.19584E-01  2667   0.780E-01    0.588E-01
RMM:  10    -0.367064683165E+03   -0.39860E-02   -0.35038E-02  2743   0.367E-01    0.819E-01
RMM:  11    -0.367061367716E+03    0.33154E-02   -0.12642E-02  2592   0.223E-01    0.596E-01
RMM:  12    -0.367061532915E+03   -0.16520E-03   -0.18220E-03  2608   0.101E-01    0.569E-01
RMM:  13    -0.367061591663E+03   -0.58748E-04   -0.34633E-04  2749   0.413E-02    0.672E-01
RMM:  14    -0.367061622001E+03   -0.30338E-04   -0.94859E-05  2600   0.242E-02    0.259E-01
RMM:  15    -0.367061668438E+03   -0.46437E-04   -0.30821E-05  2635   0.121E-02    0.206E-01
RMM:  16    -0.367061698223E+03   -0.29785E-04   -0.22649E-05  2592   0.106E-02    0.112E-01
RMM:  17    -0.367061703861E+03   -0.56384E-05   -0.76996E-06  2572   0.633E-03    0.305E-02
RMM:  18    -0.367061704783E+03   -0.92124E-06   -0.17798E-06  1596   0.303E-03
   1 F= -.36706170E+03 E0= -.36707019E+03  d E =-.367062E+03
       N       E                     dE             d eps       ncg     rms          rms(c)
DAV:   1    -0.367100542168E+03   -0.38838E-01   -0.19637E+00  2936   0.268E+00    0.614E-01
RMM:   2    -0.367110272432E+03   -0.97303E-02   -0.10120E-01  2592   0.669E-01    0.250E-01
RMM:   3    -0.367111706860E+03   -0.14344E-02   -0.16137E-02  2638   0.300E-01    0.107E-01
RMM:   4    -0.367111706212E+03    0.64886E-06   -0.22248E-03  2658   0.125E-01    0.395E-02
RMM:   5    -0.367111723047E+03   -0.16835E-04   -0.39347E-04  2675   0.498E-02    0.832E-03
RMM:   6    -0.367111732788E+03   -0.97413E-05   -0.97873E-05  2828   0.221E-02    0.216E-03
RMM:   7    -0.367111733817E+03   -0.10287E-05   -0.10710E-05  2222   0.744E-03    0.193E-03
RMM:   8    -0.367111733975E+03   -0.15804E-06   -0.21807E-06  1735   0.326E-03
   2 F= -.36711173E+03 E0= -.36711702E+03  d E =-.500292E-01
       N       E                     dE             d eps       ncg     rms          rms(c)
DAV:   1    -0.367117423497E+03   -0.56897E-02   -0.12619E-01  2918   0.679E-01    0.156E-01
RMM:   2    -0.367118035442E+03   -0.61195E-03   -0.63223E-03  2592   0.168E-01    0.642E-02
RMM:   3    -0.367118119461E+03   -0.84019E-04   -0.97460E-04  2641   0.751E-02    0.265E-02
RMM:   4    -0.367118119371E+03    0.90370E-07   -0.13428E-04  2651   0.313E-02    0.981E-03
RMM:   5    -0.367118120496E+03   -0.11257E-05   -0.24055E-05  2651   0.122E-02    0.209E-03
RMM:   6    -0.367118120952E+03   -0.45515E-06   -0.52884E-06  1977   0.537E-03    0.384E-04
RMM:   7    -0.367118121029E+03   -0.77460E-07   -0.80180E-07  1553   0.208E-03    0.399E-04
RMM:   8    -0.367118121063E+03   -0.33873E-07   -0.19648E-07  1260   0.101E-03
   3 F= -.36711812E+03 E0= -.36712443E+03  d E =-.564163E-01
