 vasp.6.4.3 19Mar24 (build Oct 21 2024 22:36:34) complex                        
  
 executed on             LinuxIFC date 2024.11.01  22:53:15
 running   96 mpi-ranks, on    1 nodes
 distrk:  each k-point on   24 cores,    4 groups
 distr:  one band on NCORE=  12 cores,    2 groups


--------------------------------------------------------------------------------------------------------


 INCAR:
   SYSTEM = Si64
   ISTART = 0
   ICHARG = 2
   LREAL = Auto
   PREC = Accurate
   LWAVE = .False.
   LCHARG = .False.
   ADDGRID = .True.
   ENCUT = 400
   GGA = PS
   GGA_COMPAT = .FALSE.
   ISMEAR = 1
   SIGMA = 0.2
   NELM = 60
   NELMIN = 8
   EDIFF = 1e-06
   EDIFFG = -0.01
   NSW = 60
   IBRION = 2
   ISIF = 2
   KPAR = 4
   NPAR = 2
   ALGO = Fast

 POTCAR:    PAW_PBE Si 05Jan2001                  
 POTCAR:    PAW_PBE Si 05Jan2001                  
   VRHFIN =Si: s2p2                                                                                 
   LEXCH  = PE                                                                                      
   EATOM  =   103.0669 eV,    7.5752 Ry                                                             
                                                                                                    
   TITEL  = PAW_PBE Si 05Jan2001                                                                    
   LULTRA =        F    use ultrasoft PP ?                                                          
   IUNSCR =        1    unscreen: 0-lin 1-nonlin 2-no                                               
   RPACOR =    1.500    partial core radius                                                         
   POMASS =   28.085; ZVAL   =    4.000    mass and valenz                                          
   RCORE  =    1.900    outmost cutoff radius                                                       
   RWIGS  =    2.480; RWIGS  =    1.312    wigner-seitz radius (au A)                               
   ENMAX  =  245.345; ENMIN  =  184.009 eV                                                          
   ICORE  =        2    local potential                                                             
   LCOR   =        T    correct aug charges                                                         
   LPAW   =        T    paw PP                                                                      
   EAUG   =  322.069                                                                                
   DEXC   =    0.000                                                                                
   RMAX   =    1.950    core radius for proj-oper                                                   
   RAUG   =    1.300    factor for augmentation sphere                                              
   RDEP   =    1.993    radius for radial grids                                                     
   RDEPT  =    1.837    core radius for aug-charge                                                  
                                                                                                    
   Atomic configuration                                                                             
    6 entries                                                                                       
     n  l   j            E        occ.                                                              
     1  0  0.50     -1785.8828   2.0000                                                             
     2  0  0.50      -139.4969   2.0000                                                             
     2  1  1.50       -95.5546   6.0000                                                             
     3  0  0.50       -10.8127   2.0000                                                             
     3  1  0.50        -4.0811   2.0000                                                             
     3  2  1.50        -4.0817   0.0000                                                             
   Description                                                                                      
     l       E           TYP  RCUT    TYP  RCUT                                                     
     0    -10.8127223     23  1.900                                                                 
     0     -7.6451159     23  1.900                                                                 
     1     -4.0811372     23  1.900                                                                 
     1      2.4879257     23  1.900                                                                 
     2     -4.0817478      7  1.900                                                                 
  local pseudopotential read in
  partial core-charges read in
  partial kinetic energy density read in
  atomic valenz-charges read in
  non local Contribution for L=           0  read in
    real space projection operators read in
  non local Contribution for L=           0  read in
    real space projection operators read in
  non local Contribution for L=           1  read in
    real space projection operators read in
  non local Contribution for L=           1  read in
    real space projection operators read in
    PAW grid and wavefunctions read in
 
   number of l-projection  operators is LMAX  =           4
   number of lm-projection operators is LMMAX =           8
 
 Optimization of the real space projectors (new method)

 maximal supplied QI-value         = 19.84
 optimisation between [QCUT,QGAM] = [ 10.12, 20.44] = [ 28.68,116.96] Ry 
 Optimized for a Real-space Cutoff    1.38 Angstroem

   l    n(q)    QCUT    max X(q) W(low)/X(q) W(high)/X(q)  e(spline) 
   0      8    10.119   159.560    0.58E-04    0.11E-03    0.54E-07
   0      8    10.119   115.863    0.56E-04    0.11E-03    0.54E-07
   1      8    10.119    88.339    0.22E-03    0.17E-03    0.19E-06
   1      8    10.119    48.592    0.22E-03    0.17E-03    0.18E-06
 -----------------------------------------------------------------------------
|                                                                             |
|               ----> ADVICE to this user running VASP <----                  |
|                                                                             |
|     You enforced a specific xc type in the INCAR file but a different       |
|     type was found in the POTCAR file.                                      |
|     I HOPE YOU KNOW WHAT YOU ARE DOING!                                     |
|                                                                             |
 -----------------------------------------------------------------------------

  PAW_PBE Si 05Jan2001                  :
 energy of atom  1       EATOM= -103.0669
 kinetic energy error for atom=    0.0012 (will be added to EATOM!!)
 
 
 POSCAR: Si8
  positions in direct lattice
  velocities in cartesian coordinates


 exchange-correlation table for PS
   RHO(1)=    0.500       N(1)  =     2000
   RHO(2)=  100.500       N(2)  =     4000
 


--------------------------------------------------------------------------------------------------------


 ion  position               nearest neighbor table
   1  0.000  0.000  0.000-  30 2.32  44 2.32  15 2.35  57 2.35
   2  0.000  0.000  0.500-  29 2.32  43 2.32  16 2.35  58 2.35
   3  0.000  0.500  0.000-  32 2.32  42 2.32  13 2.35  59 2.35
   4  0.000  0.500  0.500-  31 2.32  41 2.32  14 2.35  60 2.35
   5  0.500  0.000  0.000-  26 2.32  48 2.32  11 2.35  61 2.35
   6  0.500  0.000  0.500-  25 2.32  47 2.32  12 2.35  62 2.35
   7  0.500  0.500  0.000-  28 2.32  46 2.32   9 2.35  63 2.35
   8  0.500  0.500  0.500-  27 2.32  45 2.32  10 2.35  64 2.35
   9  0.375  0.375  0.125-  21 2.32  35 2.32   7 2.35  49 2.35
  10  0.375  0.375  0.625-  22 2.32  36 2.32   8 2.35  50 2.35
  11  0.375  0.875  0.125-  23 2.32  33 2.32   5 2.35  51 2.35
  12  0.375  0.875  0.625-  24 2.32  34 2.32   6 2.35  52 2.35
  13  0.875  0.375  0.125-  17 2.32  39 2.32   3 2.35  53 2.35
  14  0.875  0.375  0.625-  18 2.32  40 2.32   4 2.35  54 2.35
  15  0.875  0.875  0.125-  19 2.32  37 2.32   1 2.35  55 2.35
  16  0.875  0.875  0.625-  20 2.32  38 2.32   2 2.35  56 2.35
  17  0.000  0.250  0.250-  13 2.32  57 2.32  41 2.35  29 2.35
  18  0.000  0.250  0.750-  14 2.32  58 2.32  42 2.35  30 2.35
  19  0.000  0.750  0.250-  15 2.32  59 2.32  43 2.35  31 2.35
  20  0.000  0.750  0.750-  16 2.32  60 2.32  44 2.35  32 2.35
  21  0.500  0.250  0.250-   9 2.32  61 2.32  45 2.35  25 2.35
  22  0.500  0.250  0.750-  10 2.32  62 2.32  46 2.35  26 2.35
  23  0.500  0.750  0.250-  11 2.32  63 2.32  47 2.35  27 2.35
  24  0.500  0.750  0.750-  12 2.32  64 2.32  48 2.35  28 2.35
  25  0.375  0.125  0.375-   6 2.32  50 2.32  33 2.35  21 2.35
  26  0.375  0.125  0.875-   5 2.32  49 2.32  34 2.35  22 2.35
  27  0.375  0.625  0.375-   8 2.32  52 2.32  35 2.35  23 2.35
  28  0.375  0.625  0.875-   7 2.32  51 2.32  36 2.35  24 2.35
  29  0.875  0.125  0.375-   2 2.32  54 2.32  37 2.35  17 2.35
  30  0.875  0.125  0.875-   1 2.32  53 2.32  38 2.35  18 2.35
  31  0.875  0.625  0.375-   4 2.32  56 2.32  39 2.35  19 2.35
  32  0.875  0.625  0.875-   3 2.32  55 2.32  40 2.35  20 2.35
  33  0.250  0.000  0.250-  11 2.32  57 2.32  43 2.35  25 2.35
  34  0.250  0.000  0.750-  12 2.32  58 2.32  44 2.35  26 2.35
  35  0.250  0.500  0.250-   9 2.32  59 2.32  41 2.35  27 2.35
  36  0.250  0.500  0.750-  10 2.32  60 2.32  42 2.35  28 2.35
  37  0.750  0.000  0.250-  15 2.32  61 2.32  47 2.35  29 2.35
  38  0.750  0.000  0.750-  16 2.32  62 2.32  48 2.35  30 2.35
  39  0.750  0.500  0.250-  13 2.32  63 2.32  45 2.35  31 2.35
  40  0.750  0.500  0.750-  14 2.32  64 2.32  46 2.35  32 2.35
  41  0.125  0.375  0.375-   4 2.32  50 2.32  35 2.35  17 2.35
  42  0.125  0.375  0.875-   3 2.32  49 2.32  36 2.35  18 2.35
  43  0.125  0.875  0.375-   2 2.32  52 2.32  33 2.35  19 2.35
  44  0.125  0.875  0.875-   1 2.32  51 2.32  34 2.35  20 2.35
  45  0.625  0.375  0.375-   8 2.32  54 2.32  39 2.35  21 2.35
  46  0.625  0.375  0.875-   7 2.32  53 2.32  40 2.35  22 2.35
  47  0.625  0.875  0.375-   6 2.32  56 2.32  37 2.35  23 2.35
  48  0.625  0.875  0.875-   5 2.32  55 2.32  38 2.35  24 2.35
  49  0.250  0.250  0.000-  26 2.32  42 2.32   9 2.35  57 2.35
  50  0.250  0.250  0.500-  25 2.32  41 2.32  10 2.35  58 2.35
  51  0.250  0.750  0.000-  28 2.32  44 2.32  11 2.35  59 2.35
  52  0.250  0.750  0.500-  27 2.32  43 2.32  12 2.35  60 2.35
  53  0.750  0.250  0.000-  30 2.32  46 2.32  13 2.35  61 2.35
  54  0.750  0.250  0.500-  29 2.32  45 2.32  14 2.35  62 2.35
  55  0.750  0.750  0.000-  32 2.32  48 2.32  15 2.35  63 2.35
  56  0.750  0.750  0.500-  31 2.32  47 2.32  16 2.35  64 2.35
  57  0.125  0.125  0.125-  17 2.32  33 2.32   1 2.35  49 2.35
  58  0.125  0.125  0.625-  18 2.32  34 2.32   2 2.35  50 2.35
  59  0.125  0.625  0.125-  19 2.32  35 2.32   3 2.35  51 2.35
  60  0.125  0.625  0.625-  20 2.32  36 2.32   4 2.35  52 2.35
  61  0.625  0.125  0.125-  21 2.32  37 2.32   5 2.35  53 2.35
  62  0.625  0.125  0.625-  22 2.32  38 2.32   6 2.35  54 2.35
  63  0.625  0.625  0.125-  23 2.32  39 2.32   7 2.35  55 2.35
  64  0.625  0.625  0.625-  24 2.32  40 2.32   8 2.35  56 2.35
 
  LATTYP: Found a simple monoclinic cell.
 ALAT       =    10.7009555860
 B/A-ratio  =     0.9999500039
 C/A-ratio  =     1.0199980777
 COS(beta)  =    -0.0198019441
  
  Lattice vectors:
  
 A1 = (   0.1070040158,  10.7004205802,   0.0000000000)
 A2 = (   0.0000000000,   0.0000000000, -10.7004205802)
 A3 = ( -10.9144296118,  -0.1070040158,   0.0000000000)


Analysis of symmetry for initial positions (statically):
=====================================================================
 Subroutine PRICEL returns following result:
 
  LATTYP: Found a base centered monoclinic cell.
 ALAT       =     5.3504777930
 B/A-ratio  =     0.9999500039
 C/A-ratio  =     0.7071068146
 COS(beta)  =    -0.6928246447
  
  Lattice vectors:
  
 A1 = (   0.0267510040,   2.6751051451,  -2.6751051451)
 A2 = (   0.0267510040,   2.6751051451,   2.6751051451)
 A3 = (   2.7018563990,  -2.6483541411,   0.0000000000)
 
  32 primitive cells build up your supercell.
 

 Routine SETGRP: Setting up the symmetry group for a 
 simple monoclinic supercell.


 Subroutine GETGRP returns: Found  4 space group operations
 (whereof  2 operations were pure point group operations)
 out of a pool of  4 trial point group operations.


The static configuration has the point symmetry C_2 .
 The point group associated with its full space group is C_2h.


Analysis of symmetry for dynamics (positions and initial velocities):
=====================================================================
 Subroutine PRICEL returns following result:
 
  LATTYP: Found a base centered monoclinic cell.
 ALAT       =     5.3504777930
 B/A-ratio  =     0.9999500039
 C/A-ratio  =     0.7071068146
 COS(beta)  =    -0.6928246447
  
  Lattice vectors:
  
 A1 = (   0.0267510040,   2.6751051451,  -2.6751051451)
 A2 = (   0.0267510040,   2.6751051451,   2.6751051451)
 A3 = (   2.7018563990,  -2.6483541411,   0.0000000000)
 
  32 primitive cells build up your supercell.
 

 Routine SETGRP: Setting up the symmetry group for a 
 simple monoclinic supercell.


 Subroutine GETGRP returns: Found  4 space group operations
 (whereof  2 operations were pure point group operations)
 out of a pool of  4 trial point group operations.


The dynamic configuration has the point symmetry C_2 .
 The point group associated with its full space group is C_2h.


 Subroutine INISYM returns: Found  4 space group operations
 (whereof  2 operations are pure point group operations),
 and found    32 'primitive' translations


----------------------------------------------------------------------------------------

                                     Primitive cell                                     

  volume of cell :      39.0490

  direct lattice vectors                    reciprocal lattice vectors
     0.026751004  2.675105145 -2.675105145     0.181429011  0.185094254 -0.186908541
     0.026751004  2.675105145  2.675105145     0.181429011  0.185094254  0.186908541
     2.701856399 -2.648354141  0.000000000     0.366523248 -0.003665226 -0.000000000

  length of vectors
     3.783264555  3.783264555  3.783359309     0.319548387  0.319548387  0.366541574

  position of ions in fractional coordinates (direct lattice)
     0.000000000  0.000000000  0.000000000
     0.250000000  0.750000000  0.500000000

  ion indices of the primitive-cell ions
   primitive index   ion index
                 1           1
                 2          15

----------------------------------------------------------------------------------------

 
 
 KPOINTS: Automatic mesh                          

Automatic generation of k-mesh.
 Grid dimensions read from file:
 generate k-points for:    2    2    2

 Generating k-lattice:

  Cartesian coordinates                     Fractional coordinates (reciprocal lattice)
     0.045815406 -0.000458153  0.000000000     0.500000000  0.000000000  0.000000000
    -0.000458153  0.046731717  0.000000000     0.000000000  0.500000000  0.000000000
     0.000000000  0.000000000  0.046727135     0.000000000  0.000000000  0.500000000

  Length of vectors
     0.045817697  0.046733963  0.046727135

  Shift w.r.t. Gamma in fractional coordinates (k-lattice)
     0.000000000  0.000000000  0.000000000

 
 Subroutine IBZKPT returns following result:
 ===========================================
 
 Found      8 irreducible k-points:
 
 Following reciprocal coordinates:
            Coordinates               Weight
  0.000000  0.000000  0.000000      1.000000
  0.500000  0.000000  0.000000      1.000000
  0.000000  0.500000  0.000000      1.000000
  0.500000  0.500000  0.000000      1.000000
  0.000000  0.000000  0.500000      1.000000
  0.500000  0.000000  0.500000      1.000000
  0.000000  0.500000  0.500000      1.000000
  0.500000  0.500000  0.500000      1.000000
 
 Following cartesian coordinates:
            Coordinates               Weight
  0.000000  0.000000  0.000000      1.000000
  0.045815 -0.000458  0.000000      1.000000
 -0.000458  0.046732  0.000000      1.000000
  0.045357  0.046274  0.000000      1.000000
  0.000000  0.000000  0.046727      1.000000
  0.045815 -0.000458  0.046727      1.000000
 -0.000458  0.046732  0.046727      1.000000
  0.045357  0.046274  0.046727      1.000000
 


--------------------------------------------------------------------------------------------------------




 Dimension of arrays:
   k-points           NKPTS =      8   k-points in BZ     NKDIM =      8   number of bands    NBANDS=    162
   number of dos      NEDOS =    301   number of ions     NIONS =     64
   non local maximal  LDIM  =      4   non local SUM 2l+1 LMDIM =      8
   total plane-waves  NPLWV = 352800
   max r-space proj   IRMAX =   3161   max aug-charges    IRDMAX=  75710
   dimension x,y,z NGX =    72 NGY =   70 NGZ =   70
   dimension x,y,z NGXF=   144 NGYF=  140 NGZF=  140
   support grid    NGXF=   288 NGYF=  280 NGZF=  280
   ions per type =              64
   NGX,Y,Z   is equivalent  to a cutoff of  10.97, 10.87, 10.88 a.u.
   NGXF,Y,Z  is equivalent  to a cutoff of  21.93, 21.75, 21.75 a.u.

 SYSTEM =  Si64                                    
 POSCAR =  Si8                                     

 Startparameter for this run:
   NWRITE =      2    write-flag & timer
   PREC   = accura    normal or accurate (medium, high low for compatibility)
   ISTART =      0    job   : 0-new  1-cont  2-samecut
   ICHARG =      2    charge: 1-file 2-atom 10-const
   ISPIN  =      1    spin polarized calculation?
   LNONCOLLINEAR =      F non collinear calculations
   LSORBIT =      F    spin-orbit coupling
   INIWAV =      1    electr: 0-lowe 1-rand  2-diag
   LASPH  =      F    aspherical Exc in radial PAW
 Electronic Relaxation 1
   ENCUT  =  400.0 eV  29.40 Ry    5.42 a.u.  17.80 17.45 17.45*2*pi/ulx,y,z
   ENINI  =  400.0     initial cutoff
   ENAUG  =  322.1 eV  augmentation charge cutoff
   NELM   =     60;   NELMIN=  8; NELMDL= -5     # of ELM steps 
   EDIFF  = 0.1E-05   stopping-criterion for ELM
   LREAL  =      T    real-space projection
   NLSPLINE    = F    spline interpolate recip. space projectors
   LCOMPAT=      F    compatible to vasp.4.4
   GGA_COMPAT  = F    GGA compatible to vasp.4.4-vasp.4.6
   LMAXPAW     = -100 max onsite density
   LMAXMIX     =    2 max onsite mixed and CHGCAR
   VOSKOWN=      0    Vosko Wilk Nusair interpolation
   ROPT   =   -0.00025
 Ionic relaxation
   EDIFFG = -.1E-01   stopping-criterion for IOM
   NSW    =     60    number of steps for IOM
   NBLOCK =      1;   KBLOCK =     60    inner block; outer block 
   IBRION =      2    ionic relax: 0-MD 1-quasi-New 2-CG
   NFREE  =      1    steps in history (QN), initial steepest desc. (CG)
   ISIF   =      2    stress and relaxation
   IWAVPR =     11    prediction:  0-non 1-charg 2-wave 3-comb
   ISYM   =      2    0-nonsym 1-usesym 2-fastsym
   LCORR  =      T    Harris-Foulkes like correction to forces

   POTIM  = 0.5000    time-step for ionic-motion
   TEIN   =    0.0    initial temperature
   TEBEG  =    0.0;   TEEND  =   0.0 temperature during run
   SMASS  =  -3.00    Nose mass-parameter (am)
   estimated Nose-frequenzy (Omega)   =  0.10E-29 period in steps = 0.13E+47 mass=  -0.272E-26a.u.
   SCALEE = 1.0000    scale energy and forces
   NPACO  =    256;   APACO  = 10.0  distance and # of slots for P.C.
   PSTRESS=    0.0 pullay stress

  Mass of Ions in am
   POMASS =  28.09
  Ionic Valenz
   ZVAL   =   4.00
  Atomic Wigner-Seitz radii
   RWIGS  =  -1.00
  virtual crystal weights 
   VCA    =   1.00
   NELECT =     256.0000    total number of electrons
   NUPDOWN=      -1.0000    fix difference up-down

 DOS related values:
   EMIN   =  10.00;   EMAX   =-10.00  energy-range for DOS
   EFERMI =   0.00;   METHOD = LEGACY      
   ISMEAR =     1;   SIGMA  =   0.20  broadening in eV -4-tet -1-fermi 0-gaus

 Electronic relaxation 2 (details)
   IALGO  =     68    algorithm
   LDIAG  =      T    sub-space diagonalisation (order eigenvalues)
   LSUBROT=      F    optimize rotation matrix (better conditioning)
   TURBO    =      0    0=normal 1=particle mesh
   IRESTART =      0    0=no restart 2=restart with 2 vectors
   NREBOOT  =      0    no. of reboots
   NMIN     =      0    reboot dimension
   EREF     =   0.00    reference energy to select bands
   IMIX   =      4    mixing-type and parameters
     AMIX     =   0.40;   BMIX     =  1.00
     AMIX_MAG =   1.60;   BMIX_MAG =  1.00
     AMIN     =   0.10
     WC   =   100.;   INIMIX=   1;  MIXPRE=   1;  MAXMIX= -45

 Intra band minimization:
   WEIMIN = 0.0010     energy-eigenvalue tresh-hold
   EBREAK =  0.15E-08  absolut break condition
   DEPER  =   0.30     relativ break condition  

   TIME   =   0.40     timestep for ELM

  volume/ion in A,a.u.               =      19.52       131.76
  Fermi-wavevector in a.u.,A,eV,Ry     =   0.965091  1.823757 12.672465  0.931400
  Thomas-Fermi vector in A             =   2.094778
 
 Write flags
   LWAVE        =      F    write WAVECAR
   LDOWNSAMPLE  =      F    k-point downsampling of WAVECAR
   LCHARG       =      F    write CHGCAR
   LVTOT        =      F    write LOCPOT, total local potential
   LVHAR        =      F    write LOCPOT, Hartree potential only
   WRT_POTENTIAL= false  ! write potential to hdf5 file
   LELF         =      F    write electronic localiz. function (ELF)
   LORBIT       =      0    0 simple, 1 ext, 2 COOP (PROOUT), +10 PAW based schemes


 Dipole corrections
   LMONO      =      F    monopole corrections only (constant potential shift)
   LDIPOL     =      F    correct potential (dipole corrections)
   IDIPOL     =      0    1-x, 2-y, 3-z, 4-all directions 
   EPSILON    =  1.0000000 bulk dielectric constant
   LVACPOTAV  =      F  vacuum potentials using an averaging scheme for the charge density
   VACPOTFLAT =  0.1000000 required flatness to determine vacuum potential
 Exchange correlation treatment:
   GGA     = PS    functional components
   XC_C    = 1    coefficients multiplying the functional components
   LIBXC   =     F    Libxc                    
   VOSKOWN =     0    Vosko Wilk Nusair interpolation
   LHFCALC =     F    Hartree Fock is set to
   LHFONE  =     F    Hartree Fock one center treatment
   AEXX    =    0.0000 exact exchange contribution

 Parameters of functionals:
   PS:
     No parameter
 
 Van der Waals corrections
   IVDW    =     0    specifies the selected vdW correction

 Linear response parameters
   LEPSILON=     F    determine dielectric tensor
   LRPA    =     F    only Hartree local field effects (RPA)
   LNABLA  =     F    use nabla operator in PAW spheres
   LVEL    =     F    velocity operator in full k-point grid
   CSHIFT  =0.1000    complex shift for real part using Kramers Kronig
   OMEGAMAX=  -1.0    maximum frequency
   DEG_THRESHOLD= 0.2000000E-02 threshold for treating states as degnerate
   RTIME   =   -0.100 relaxation time in fs
  (WPLASMAI=    0.000 imaginary part of plasma frequency in eV, 0.658/RTIME)
   DFIELD  = 0.0000000 0.0000000 0.0000000 field for delta impulse in time
 
  Optional k-point grid parameters
   LKPOINTS_OPT  =     F    use optional k-point grid
   KPOINTS_OPT_MODE=     1    mode for optional k-point grid
 
 Orbital magnetization related:
   ORBITALMAG=     F  switch on orbital magnetization
   LCHIMAG   =     F  perturbation theory with respect to B field
   DQ        =  0.001000  dq finite difference perturbation B field
   LLRAUG    =     F  two centre corrections for induced B field
   LBONE     =     F  B-component reconstruction in AE one-centre
   LVGVCALC  =     T  calculate vGv susceptibility
   LVGVAPPL  =     F  apply vGv susceptibility instead of pGv for G=0

 Random number generation:
   RANDOM_GENERATOR = DEFAULT
   PCG_SEED         = not used


--------------------------------------------------------------------------------------------------------


 conjugate gradient relaxation of ions
 charge density and potential will be updated during run
 non-spin polarized calculation
 RMM-DIIS sequential band-by-band and
  variant of blocked Davidson during initial phase
 perform sub-space diagonalisation
    before iterative eigenvector-optimisation
 modified Broyden-mixing scheme, WC =      100.0
 initial mixing is a Kerker type mixing with AMIX =  0.4000 and BMIX =      1.0000
 Hartree-type preconditioning will be used
 using additional bands           34
 real space projection scheme for non local part
 use partial core corrections
 calculate Harris-corrections to forces 
   (improved forces if not selfconsistent)
 use gradient corrections 
 use of overlap-Matrix (Vanderbilt PP)
 Methfessel and Paxton  Order N= 1 SIGMA  =   0.20


--------------------------------------------------------------------------------------------------------


  energy-cutoff  :      400.00
  volume of cell :     1249.57
      direct lattice vectors                 reciprocal lattice vectors
    10.914429612  0.107004016  0.000000000     0.091630812 -0.000916306  0.000000000
     0.107004016 10.700420580  0.000000000    -0.000916306  0.093463434  0.000000000
     0.000000000  0.000000000 10.700420580     0.000000000  0.000000000  0.093454271

  length of vectors
    10.914954128 10.700955586 10.700420580     0.091635393  0.093467925  0.093454271


 
 k-points in units of 2pi/SCALE and weight: Automatic mesh                          
   0.00000000  0.00000000  0.00000000       0.125
   0.04581541 -0.00045815  0.00000000       0.125
  -0.00045815  0.04673172  0.00000000       0.125
   0.04535726  0.04627357  0.00000000       0.125
   0.00000000  0.00000000  0.04672714       0.125
   0.04581541 -0.00045815  0.04672714       0.125
  -0.00045815  0.04673172  0.04672714       0.125
   0.04535726  0.04627357  0.04672714       0.125
 
 k-points in reciprocal lattice and weights: Automatic mesh                          
   0.00000000  0.00000000  0.00000000       0.125
   0.50000000  0.00000000  0.00000000       0.125
   0.00000000  0.50000000  0.00000000       0.125
   0.50000000  0.50000000  0.00000000       0.125
   0.00000000  0.00000000  0.50000000       0.125
   0.50000000  0.00000000  0.50000000       0.125
   0.00000000  0.50000000  0.50000000       0.125
   0.50000000  0.50000000  0.50000000       0.125
 
 position of ions in fractional coordinates (direct lattice) 
   0.00000000  0.00000000  0.00000000
   0.00000000  0.00000000  0.50000000
   0.00000000  0.50000000  0.00000000
   0.00000000  0.50000000  0.50000000
   0.50000000  0.00000000  0.00000000
   0.50000000  0.00000000  0.50000000
   0.50000000  0.50000000  0.00000000
   0.50000000  0.50000000  0.50000000
   0.37500000  0.37500000  0.12500000
   0.37500000  0.37500000  0.62500000
   0.37500000  0.87500000  0.12500000
   0.37500000  0.87500000  0.62500000
   0.87500000  0.37500000  0.12500000
   0.87500000  0.37500000  0.62500000
   0.87500000  0.87500000  0.12500000
   0.87500000  0.87500000  0.62500000
   0.00000000  0.25000000  0.25000000
   0.00000000  0.25000000  0.75000000
   0.00000000  0.75000000  0.25000000
   0.00000000  0.75000000  0.75000000
   0.50000000  0.25000000  0.25000000
   0.50000000  0.25000000  0.75000000
   0.50000000  0.75000000  0.25000000
   0.50000000  0.75000000  0.75000000
   0.37500000  0.12500000  0.37500000
   0.37500000  0.12500000  0.87500000
   0.37500000  0.62500000  0.37500000
   0.37500000  0.62500000  0.87500000
   0.87500000  0.12500000  0.37500000
   0.87500000  0.12500000  0.87500000
   0.87500000  0.62500000  0.37500000
   0.87500000  0.62500000  0.87500000
   0.25000000  0.00000000  0.25000000
   0.25000000  0.00000000  0.75000000
   0.25000000  0.50000000  0.25000000
   0.25000000  0.50000000  0.75000000
   0.75000000  0.00000000  0.25000000
   0.75000000  0.00000000  0.75000000
   0.75000000  0.50000000  0.25000000
   0.75000000  0.50000000  0.75000000
   0.12500000  0.37500000  0.37500000
   0.12500000  0.37500000  0.87500000
   0.12500000  0.87500000  0.37500000
   0.12500000  0.87500000  0.87500000
   0.62500000  0.37500000  0.37500000
   0.62500000  0.37500000  0.87500000
   0.62500000  0.87500000  0.37500000
   0.62500000  0.87500000  0.87500000
   0.25000000  0.25000000  0.00000000
   0.25000000  0.25000000  0.50000000
   0.25000000  0.75000000  0.00000000
   0.25000000  0.75000000  0.50000000
   0.75000000  0.25000000  0.00000000
   0.75000000  0.25000000  0.50000000
   0.75000000  0.75000000  0.00000000
   0.75000000  0.75000000  0.50000000
   0.12500000  0.12500000  0.12500000
   0.12500000  0.12500000  0.62500000
   0.12500000  0.62500000  0.12500000
   0.12500000  0.62500000  0.62500000
   0.62500000  0.12500000  0.12500000
   0.62500000  0.12500000  0.62500000
   0.62500000  0.62500000  0.12500000
   0.62500000  0.62500000  0.62500000
 
 position of ions in cartesian coordinates  (Angst):
   0.00000000  0.00000000  0.00000000
   0.00000000  0.00000000  5.35021029
   0.05350201  5.35021029  0.00000000
   0.05350201  5.35021029  5.35021029
   5.45721481  0.05350201  0.00000000
   5.45721481  0.05350201  5.35021029
   5.51071681  5.40371230  0.00000000
   5.51071681  5.40371230  5.35021029
   4.13303761  4.05278422  1.33755257
   4.13303761  4.05278422  6.68776286
   4.18653962  9.40299451  1.33755257
   4.18653962  9.40299451  6.68776286
   9.59025242  4.10628623  1.33755257
   9.59025242  4.10628623  6.68776286
   9.64375442  9.45649652  1.33755257
   9.64375442  9.45649652  6.68776286
   0.02675100  2.67510515  2.67510515
   0.02675100  2.67510515  8.02531544
   0.08025301  8.02531544  2.67510515
   0.08025301  8.02531544  8.02531544
   5.48396581  2.72860715  2.67510515
   5.48396581  2.72860715  8.02531544
   5.53746782  8.07881744  2.67510515
   5.53746782  8.07881744  8.02531544
   4.10628661  1.37767908  4.01265772
   4.10628661  1.37767908  9.36286801
   4.15978861  6.72788937  4.01265772
   4.15978861  6.72788937  9.36286801
   9.56350141  1.43118109  4.01265772
   9.56350141  1.43118109  9.36286801
   9.61700342  6.78139138  4.01265772
   9.61700342  6.78139138  9.36286801
   2.72860740  0.02675100  2.67510515
   2.72860740  0.02675100  8.02531544
   2.78210941  5.37696129  2.67510515
   2.78210941  5.37696129  8.02531544
   8.18582221  0.08025301  2.67510515
   8.18582221  0.08025301  8.02531544
   8.23932422  5.43046330  2.67510515
   8.23932422  5.43046330  8.02531544
   1.40443021  4.02603322  4.01265772
   1.40443021  4.02603322  9.36286801
   1.45793222  9.37624351  4.01265772
   1.45793222  9.37624351  9.36286801
   6.86164501  4.07953523  4.01265772
   6.86164501  4.07953523  9.36286801
   6.91514702  9.42974552  4.01265772
   6.91514702  9.42974552  9.36286801
   2.75535841  2.70185615  0.00000000
   2.75535841  2.70185615  5.35021029
   2.80886041  8.05206644  0.00000000
   2.80886041  8.05206644  5.35021029
   8.21257321  2.75535816  0.00000000
   8.21257321  2.75535816  5.35021029
   8.26607522  8.10556845  0.00000000
   8.26607522  8.10556845  5.35021029
   1.37767920  1.35092807  1.33755257
   1.37767920  1.35092807  6.68776286
   1.43118121  6.70113836  1.33755257
   1.43118121  6.70113836  6.68776286
   6.83489401  1.40443008  1.33755257
   6.83489401  1.40443008  6.68776286
   6.88839602  6.75464037  1.33755257
   6.88839602  6.75464037  6.68776286
 


--------------------------------------------------------------------------------------------------------


 k-point     1 :   0.0000 0.0000 0.0000  plane waves:   22689
 k-point     2 :   0.5000 0.0000 0.0000  plane waves:   22726
 k-point     3 :   0.0000 0.5000 0.0000  plane waves:   22694
 k-point     4 :   0.5000 0.5000 0.0000  plane waves:   22734
 k-point     5 :   0.0000 0.0000 0.5000  plane waves:   22690
 k-point     6 :   0.5000 0.0000 0.5000  plane waves:   22712
 k-point     7 :   0.0000 0.5000 0.5000  plane waves:   22696
 k-point     8 :   0.5000 0.5000 0.5000  plane waves:   22668

 maximum and minimum number of plane-waves per node :      1912     1862

 maximum number of plane-waves:     22734
 maximum index in each direction: 
   IXMAX=   17   IYMAX=   17   IZMAX=   17
   IXMIN=  -18   IYMIN=  -17   IZMIN=  -17


 real space projection operators:
  total allocation   :      12036.50 KBytes
  max/ min on nodes  :       1020.00        974.50


 parallel 3D FFT for wavefunctions:
    minimum data exchange during FFTs selected (reduces bandwidth)
 parallel 3D FFT for charge:
    minimum data exchange during FFTs selected (reduces bandwidth)


 total amount of memory used by VASP MPI-rank0    79825. kBytes
=======================================================================

   base      :      30000. kBytes
   nonlr-proj:       4617. kBytes
   fftplans  :      18113. kBytes
   grid      :       6881. kBytes
   one-center:         18. kBytes
   wavefun   :      20196. kBytes
 
     INWAV:  cpu time      0.0001: real time      0.0000
 Broyden mixing: mesh for mixing (old mesh)
   NGX = 35   NGY = 35   NGZ = 35
  (NGX  =144   NGY  =140   NGZ  =140)
  gives a total of  42875 points

 initial charge density was supplied:
 charge density of overlapping atoms calculated
 number of electron     256.0000000 magnetization 
 keeping initial charge density in first step


--------------------------------------------------------------------------------------------------------


 Maximum index for non-local projection operator          280
 Maximum index for augmentation-charges         3308 (set IRDMAX)


--------------------------------------------------------------------------------------------------------


 First call to EWALD:  gamma=   0.165
 Maximum number of real-space cells 3x 3x 3
 Maximum number of reciprocal cells 3x 3x 3

    FEWALD:  cpu time      0.0031: real time      0.0031


--------------------------------------- Ionic step        1  -------------------------------------------




--------------------------------------- Iteration      1(   1)  ---------------------------------------


    POTLOK:  cpu time      0.0940: real time      0.1021
    SETDIJ:  cpu time      0.0869: real time      0.0879
     EDDAV:  cpu time      1.2622: real time      1.3067
       DOS:  cpu time      0.0144: real time      0.0163
    --------------------------------------------
      LOOP:  cpu time      1.4577: real time      1.5131

 eigenvalue-minimisations  :  2592
 total energy-change (2. order) : 0.5667395E+03  (-0.8435643E+04)
 number of electron     256.0000000 magnetization 
 augmentation part      256.0000000 magnetization 

 Free energy of the ion-electron system (eV)
  ---------------------------------------------------
  alpha Z        PSCENC =       110.34541491
  Ewald energy   TEWEN  =     -7374.41360687
  -Hartree energ DENC   =      -340.32511618
  -exchange      EXHF   =         0.00000000
  -V(xc)+E(xc)   XCENC  =      -555.65358141
  PAW double counting   =      5598.62625415    -4492.17844134
  entropy T*S    EENTRO =        -0.01155373
  eigenvalues    EBANDS =      1055.55429955
  atomic energy  EATOM  =      6564.79586099
  Solvation  Ediel_sol  =         0.00000000
  ---------------------------------------------------
  free energy    TOTEN  =       566.73953007 eV

  energy without entropy =      566.75108379  energy(sigma->0) =      566.74338131


--------------------------------------------------------------------------------------------------------




--------------------------------------- Iteration      1(   2)  ---------------------------------------


     EDDAV:  cpu time      1.3305: real time      1.3549
       DOS:  cpu time      0.0013: real time      0.0015
    --------------------------------------------
      LOOP:  cpu time      1.3319: real time      1.3564

 eigenvalue-minimisations  :  3096
 total energy-change (2. order) :-0.8768926E+03  (-0.8318299E+03)
 number of electron     256.0000000 magnetization 
 augmentation part      256.0000000 magnetization 

 Free energy of the ion-electron system (eV)
  ---------------------------------------------------
  alpha Z        PSCENC =       110.34541491
  Ewald energy   TEWEN  =     -7374.41360687
  -Hartree energ DENC   =      -340.32511618
  -exchange      EXHF   =         0.00000000
  -V(xc)+E(xc)   XCENC  =      -555.65358141
  PAW double counting   =      5598.62625415    -4492.17844134
  entropy T*S    EENTRO =         0.00563795
  eigenvalues    EBANDS =       178.64454041
  atomic energy  EATOM  =      6564.79586099
  Solvation  Ediel_sol  =         0.00000000
  ---------------------------------------------------
  free energy    TOTEN  =      -310.15303740 eV

  energy without entropy =     -310.15867535  energy(sigma->0) =     -310.15491672


--------------------------------------------------------------------------------------------------------




--------------------------------------- Iteration      1(   3)  ---------------------------------------


     EDDAV:  cpu time      1.3555: real time      1.3596
       DOS:  cpu time      0.0013: real time      0.0013
    --------------------------------------------
      LOOP:  cpu time      1.3568: real time      1.3609

 eigenvalue-minimisations  :  3136
 total energy-change (2. order) :-0.6300478E+02  (-0.6181701E+02)
 number of electron     256.0000000 magnetization 
 augmentation part      256.0000000 magnetization 

 Free energy of the ion-electron system (eV)
  ---------------------------------------------------
  alpha Z        PSCENC =       110.34541491
  Ewald energy   TEWEN  =     -7374.41360687
  -Hartree energ DENC   =      -340.32511618
  -exchange      EXHF   =         0.00000000
  -V(xc)+E(xc)   XCENC  =      -555.65358141
  PAW double counting   =      5598.62625415    -4492.17844134
  entropy T*S    EENTRO =         0.00713593
  eigenvalues    EBANDS =       115.63826060
  atomic energy  EATOM  =      6564.79586099
  Solvation  Ediel_sol  =         0.00000000
  ---------------------------------------------------
  free energy    TOTEN  =      -373.15781922 eV

  energy without entropy =     -373.16495515  energy(sigma->0) =     -373.16019786


--------------------------------------------------------------------------------------------------------




--------------------------------------- Iteration      1(   4)  ---------------------------------------


     EDDAV:  cpu time      1.3196: real time      1.3342
       DOS:  cpu time      0.0014: real time      0.0014
    --------------------------------------------
      LOOP:  cpu time      1.3211: real time      1.3356

 eigenvalue-minimisations  :  3120
 total energy-change (2. order) :-0.1585136E+01  (-0.1572932E+01)
 number of electron     256.0000000 magnetization 
 augmentation part      256.0000000 magnetization 

 Free energy of the ion-electron system (eV)
  ---------------------------------------------------
  alpha Z        PSCENC =       110.34541491
  Ewald energy   TEWEN  =     -7374.41360687
  -Hartree energ DENC   =      -340.32511618
  -exchange      EXHF   =         0.00000000
  -V(xc)+E(xc)   XCENC  =      -555.65358141
  PAW double counting   =      5598.62625415    -4492.17844134
  entropy T*S    EENTRO =         0.00735438
  eigenvalues    EBANDS =       114.05290596
  atomic energy  EATOM  =      6564.79586099
  Solvation  Ediel_sol  =         0.00000000
  ---------------------------------------------------
  free energy    TOTEN  =      -374.74295541 eV

  energy without entropy =     -374.75030979  energy(sigma->0) =     -374.74540687


--------------------------------------------------------------------------------------------------------




--------------------------------------- Iteration      1(   5)  ---------------------------------------


     EDDAV:  cpu time      1.3350: real time      1.3528
       DOS:  cpu time      0.0012: real time      0.0012
    CHARGE:  cpu time      0.2492: real time      0.2538
    MIXING:  cpu time      0.0078: real time      0.0078
    --------------------------------------------
      LOOP:  cpu time      1.5932: real time      1.6156

 eigenvalue-minimisations  :  3112
 total energy-change (2. order) :-0.5350424E-01  (-0.5338855E-01)
 number of electron     256.0000000 magnetization 
 augmentation part      -15.0233176 magnetization 

 Broyden mixing:
  rms(total) = 0.29065E+01    rms(broyden)= 0.29065E+01
  rms(prec ) = 0.31980E+01
  weight for this iteration     100.00

 Free energy of the ion-electron system (eV)
  ---------------------------------------------------
  alpha Z        PSCENC =       110.34541491
  Ewald energy   TEWEN  =     -7374.41360687
  -Hartree energ DENC   =      -340.32511618
  -exchange      EXHF   =         0.00000000
  -V(xc)+E(xc)   XCENC  =      -555.65358141
  PAW double counting   =      5598.62625415    -4492.17844134
  entropy T*S    EENTRO =         0.00744296
  eigenvalues    EBANDS =       113.99931314
  atomic energy  EATOM  =      6564.79586099
  Solvation  Ediel_sol  =         0.00000000
  ---------------------------------------------------
  free energy    TOTEN  =      -374.79645965 eV

  energy without entropy =     -374.80390261  energy(sigma->0) =     -374.79894064


--------------------------------------------------------------------------------------------------------




--------------------------------------- Iteration      1(   6)  ---------------------------------------


    POTLOK:  cpu time      0.0819: real time      0.0986
    SETDIJ:  cpu time      0.0706: real time      0.0707
    EDDIAG:  cpu time      0.1378: real time      0.1422
  RMM-DIIS:  cpu time      0.7001: real time      0.7038
    ORTHCH:  cpu time      0.0211: real time      0.0211
       DOS:  cpu time      0.0015: real time      0.0015
    CHARGE:  cpu time      0.2309: real time      0.2397
    MIXING:  cpu time      0.0133: real time      0.0157
    --------------------------------------------
      LOOP:  cpu time      1.2571: real time      1.2933

 eigenvalue-minimisations  :  2592
 total energy-change (2. order) : 0.5388326E+01  (-0.2750879E+00)
 number of electron     256.0000000 magnetization 
 augmentation part      -14.8542940 magnetization 

 Broyden mixing:
  rms(total) = 0.17498E+01    rms(broyden)= 0.17498E+01
  rms(prec ) = 0.19154E+01
  weight for this iteration     100.00

 eigenvalues of (default mixing * dielectric matrix)
  average eigenvalue GAMMA=   2.5071
  2.5071

 Free energy of the ion-electron system (eV)
  ---------------------------------------------------
  alpha Z        PSCENC =       110.34541491
  Ewald energy   TEWEN  =     -7374.41360687
  -Hartree energ DENC   =      -387.81564211
  -exchange      EXHF   =         0.00000000
  -V(xc)+E(xc)   XCENC  =      -548.15052960
  PAW double counting   =     12677.15660132   -11574.23601710
  entropy T*S    EENTRO =         0.01790282
  eigenvalues    EBANDS =       162.89188235
  atomic energy  EATOM  =      6564.79586099
  Solvation  Ediel_sol  =         0.00000000
  ---------------------------------------------------
  free energy    TOTEN  =      -369.40813328 eV

  energy without entropy =     -369.42603610  energy(sigma->0) =     -369.41410089


--------------------------------------------------------------------------------------------------------




--------------------------------------- Iteration      1(   7)  ---------------------------------------


    POTLOK:  cpu time      0.0788: real time      0.0947
    SETDIJ:  cpu time      0.0726: real time      0.0728
    EDDIAG:  cpu time      0.1400: real time      0.1406
  RMM-DIIS:  cpu time      0.7000: real time      0.7016
    ORTHCH:  cpu time      0.0210: real time      0.0211
       DOS:  cpu time      0.0013: real time      0.0013
    CHARGE:  cpu time      0.2384: real time      0.2389
    MIXING:  cpu time      0.0055: real time      0.0055
    --------------------------------------------
      LOOP:  cpu time      1.2576: real time      1.2765

 eigenvalue-minimisations  :  2631
 total energy-change (2. order) : 0.2411698E+01  (-0.6992101E+00)
 number of electron     256.0000000 magnetization 
 augmentation part      -14.6171149 magnetization 

 Broyden mixing:
  rms(total) = 0.10181E+00    rms(broyden)= 0.10181E+00
  rms(prec ) = 0.12801E+00
  weight for this iteration     100.00

 eigenvalues of (default mixing * dielectric matrix)
  average eigenvalue GAMMA=   2.2914
  2.2914  2.2914

 Free energy of the ion-electron system (eV)
  ---------------------------------------------------
  alpha Z        PSCENC =       110.34541491
  Ewald energy   TEWEN  =     -7374.41360687
  -Hartree energ DENC   =      -466.18016746
  -exchange      EXHF   =         0.00000000
  -V(xc)+E(xc)   XCENC  =      -535.19505431
  PAW double counting   =     29785.88875796   -28687.86403255
  entropy T*S    EENTRO =         0.02230632
  eigenvalues    EBANDS =       235.60408545
  atomic energy  EATOM  =      6564.79586099
  Solvation  Ediel_sol  =         0.00000000
  ---------------------------------------------------
  free energy    TOTEN  =      -366.99643556 eV

  energy without entropy =     -367.01874189  energy(sigma->0) =     -367.00387101


--------------------------------------------------------------------------------------------------------




--------------------------------------- Iteration      1(   8)  ---------------------------------------


    POTLOK:  cpu time      0.0750: real time      0.0896
    SETDIJ:  cpu time      0.0793: real time      0.0795
    EDDIAG:  cpu time      0.1455: real time      0.1461
  RMM-DIIS:  cpu time      0.7210: real time      0.7227
    ORTHCH:  cpu time      0.0213: real time      0.0213
       DOS:  cpu time      0.0013: real time      0.0015
    CHARGE:  cpu time      0.2390: real time      0.2396
    MIXING:  cpu time      0.0071: real time      0.0071
    --------------------------------------------
      LOOP:  cpu time      1.2894: real time      1.3075

 eigenvalue-minimisations  :  2632
 total energy-change (2. order) :-0.4344440E-01  (-0.6961743E-01)
 number of electron     256.0000000 magnetization 
 augmentation part      -14.6706808 magnetization 

 Broyden mixing:
  rms(total) = 0.51432E-01    rms(broyden)= 0.51432E-01
  rms(prec ) = 0.54893E-01
  weight for this iteration     100.00

 eigenvalues of (default mixing * dielectric matrix)
  average eigenvalue GAMMA=   2.1475
  2.5603  1.9410  1.9410

 Free energy of the ion-electron system (eV)
  ---------------------------------------------------
  alpha Z        PSCENC =       110.34541491
  Ewald energy   TEWEN  =     -7374.41360687
  -Hartree energ DENC   =      -458.31197432
  -exchange      EXHF   =         0.00000000
  -V(xc)+E(xc)   XCENC  =      -535.84150865
  PAW double counting   =     29436.46600006   -28337.49063687
  entropy T*S    EENTRO =         0.02520880
  eigenvalues    EBANDS =       227.38536198
  atomic energy  EATOM  =      6564.79586099
  Solvation  Ediel_sol  =         0.00000000
  ---------------------------------------------------
  free energy    TOTEN  =      -367.03987997 eV

  energy without entropy =     -367.06508876  energy(sigma->0) =     -367.04828290


--------------------------------------------------------------------------------------------------------




--------------------------------------- Iteration      1(   9)  ---------------------------------------


    POTLOK:  cpu time      0.0754: real time      0.0904
    SETDIJ:  cpu time      0.0739: real time      0.0744
    EDDIAG:  cpu time      0.1345: real time      0.1348
  RMM-DIIS:  cpu time      0.7128: real time      0.7149
    ORTHCH:  cpu time      0.0210: real time      0.0211
       DOS:  cpu time      0.0015: real time      0.0015
    CHARGE:  cpu time      0.2367: real time      0.2373
    MIXING:  cpu time      0.0064: real time      0.0064
    --------------------------------------------
      LOOP:  cpu time      1.2623: real time      1.2807

 eigenvalue-minimisations  :  2667
 total energy-change (2. order) :-0.2081724E-01  (-0.1958389E-01)
 number of electron     256.0000000 magnetization 
 augmentation part      -14.6586905 magnetization 

 Broyden mixing:
  rms(total) = 0.58790E-01    rms(broyden)= 0.58789E-01
  rms(prec ) = 0.65978E-01
  weight for this iteration     100.00

 eigenvalues of (default mixing * dielectric matrix)
  average eigenvalue GAMMA=   1.8404
  2.5547  2.2563  2.2563  0.2943

 Free energy of the ion-electron system (eV)
  ---------------------------------------------------
  alpha Z        PSCENC =       110.34541491
  Ewald energy   TEWEN  =     -7374.41360687
  -Hartree energ DENC   =      -461.27219125
  -exchange      EXHF   =         0.00000000
  -V(xc)+E(xc)   XCENC  =      -535.43847634
  PAW double counting   =     29816.12052749   -28717.38961373
  entropy T*S    EENTRO =         0.02467054
  eigenvalues    EBANDS =       230.16671705
  atomic energy  EATOM  =      6564.79586099
  Solvation  Ediel_sol  =         0.00000000
  ---------------------------------------------------
  free energy    TOTEN  =      -367.06069721 eV

  energy without entropy =     -367.08536774  energy(sigma->0) =     -367.06892072


--------------------------------------------------------------------------------------------------------




--------------------------------------- Iteration      1(  10)  ---------------------------------------


    POTLOK:  cpu time      0.0745: real time      0.0900
    SETDIJ:  cpu time      0.0739: real time      0.0741
    EDDIAG:  cpu time      0.1350: real time      0.1353
  RMM-DIIS:  cpu time      0.7461: real time      0.7680
    ORTHCH:  cpu time      0.0204: real time      0.0209
       DOS:  cpu time      0.0016: real time      0.0016
    CHARGE:  cpu time      0.2353: real time      0.2387
    MIXING:  cpu time      0.0063: real time      0.0063
    --------------------------------------------
      LOOP:  cpu time      1.2930: real time      1.3348

 eigenvalue-minimisations  :  2743
 total energy-change (2. order) :-0.3985959E-02  (-0.3503758E-02)
 number of electron     256.0000000 magnetization 
 augmentation part      -14.6648337 magnetization 

 Broyden mixing:
  rms(total) = 0.81870E-01    rms(broyden)= 0.81870E-01
  rms(prec ) = 0.88455E-01
  weight for this iteration     100.00

 eigenvalues of (default mixing * dielectric matrix)
  average eigenvalue GAMMA=   1.6179
  2.6755  2.0743  2.0743  0.6326  0.6326

 Free energy of the ion-electron system (eV)
  ---------------------------------------------------
  alpha Z        PSCENC =       110.34541491
  Ewald energy   TEWEN  =     -7374.41360687
  -Hartree energ DENC   =      -461.46607376
  -exchange      EXHF   =         0.00000000
  -V(xc)+E(xc)   XCENC  =      -535.41653881
  PAW double counting   =     29862.23179599   -28763.50845716
  entropy T*S    EENTRO =         0.02460363
  eigenvalues    EBANDS =       230.34231792
  atomic energy  EATOM  =      6564.79586099
  Solvation  Ediel_sol  =         0.00000000
  ---------------------------------------------------
  free energy    TOTEN  =      -367.06468317 eV

  energy without entropy =     -367.08928679  energy(sigma->0) =     -367.07288437


--------------------------------------------------------------------------------------------------------




--------------------------------------- Iteration      1(  11)  ---------------------------------------


    POTLOK:  cpu time      0.0769: real time      0.0942
    SETDIJ:  cpu time      0.0723: real time      0.0725
    EDDIAG:  cpu time      0.1337: real time      0.1340
  RMM-DIIS:  cpu time      0.6933: real time      0.6950
    ORTHCH:  cpu time      0.0214: real time      0.0214
       DOS:  cpu time      0.0015: real time      0.0015
    CHARGE:  cpu time      0.2373: real time      0.2383
    MIXING:  cpu time      0.0062: real time      0.0062
    --------------------------------------------
      LOOP:  cpu time      1.2426: real time      1.2631

 eigenvalue-minimisations  :  2592
 total energy-change (2. order) : 0.3315449E-02  (-0.1264169E-02)
 number of electron     256.0000000 magnetization 
 augmentation part      -14.6786173 magnetization 

 Broyden mixing:
  rms(total) = 0.59619E-01    rms(broyden)= 0.59619E-01
  rms(prec ) = 0.60145E-01
  weight for this iteration     100.00

 eigenvalues of (default mixing * dielectric matrix)
  average eigenvalue GAMMA=   1.4813
  2.5899  2.5899  1.2837  1.2837  0.8113  0.3291

 Free energy of the ion-electron system (eV)
  ---------------------------------------------------
  alpha Z        PSCENC =       110.34541491
  Ewald energy   TEWEN  =     -7374.41360687
  -Hartree energ DENC   =      -459.00450104
  -exchange      EXHF   =         0.00000000
  -V(xc)+E(xc)   XCENC  =      -535.59438516
  PAW double counting   =     29751.98552438   -28653.01845357
  entropy T*S    EENTRO =         0.02537396
  eigenvalues    EBANDS =       227.81740467
  atomic energy  EATOM  =      6564.79586099
  Solvation  Ediel_sol  =         0.00000000
  ---------------------------------------------------
  free energy    TOTEN  =      -367.06136772 eV

  energy without entropy =     -367.08674168  energy(sigma->0) =     -367.06982570


--------------------------------------------------------------------------------------------------------




--------------------------------------- Iteration      1(  12)  ---------------------------------------


    POTLOK:  cpu time      0.0772: real time      0.0937
    SETDIJ:  cpu time      0.0726: real time      0.0728
    EDDIAG:  cpu time      0.1345: real time      0.1348
  RMM-DIIS:  cpu time      0.6972: real time      0.6988
    ORTHCH:  cpu time      0.0209: real time      0.0209
       DOS:  cpu time      0.0014: real time      0.0014
    CHARGE:  cpu time      0.2374: real time      0.2384
    MIXING:  cpu time      0.0060: real time      0.0060
    --------------------------------------------
      LOOP:  cpu time      1.2472: real time      1.2669

 eigenvalue-minimisations  :  2608
 total energy-change (2. order) :-0.1651986E-03  (-0.1822042E-03)
 number of electron     256.0000000 magnetization 
 augmentation part      -14.6818916 magnetization 

 Broyden mixing:
  rms(total) = 0.56879E-01    rms(broyden)= 0.56879E-01
  rms(prec ) = 0.57185E-01
  weight for this iteration     100.00

 eigenvalues of (default mixing * dielectric matrix)
  average eigenvalue GAMMA=   1.4221
  2.5883  2.5883  0.7870  1.5891  1.1137  0.8488  0.4396

 Free energy of the ion-electron system (eV)
  ---------------------------------------------------
  alpha Z        PSCENC =       110.34541491
  Ewald energy   TEWEN  =     -7374.41360687
  -Hartree energ DENC   =      -458.83264621
  -exchange      EXHF   =         0.00000000
  -V(xc)+E(xc)   XCENC  =      -535.62398588
  PAW double counting   =     29669.11119021   -28570.15360350
  entropy T*S    EENTRO =         0.02539675
  eigenvalues    EBANDS =       227.68444670
  atomic energy  EATOM  =      6564.79586099
  Solvation  Ediel_sol  =         0.00000000
  ---------------------------------------------------
  free energy    TOTEN  =      -367.06153291 eV

  energy without entropy =     -367.08692966  energy(sigma->0) =     -367.06999850


--------------------------------------------------------------------------------------------------------




--------------------------------------- Iteration      1(  13)  ---------------------------------------


    POTLOK:  cpu time      0.0786: real time      0.0961
    SETDIJ:  cpu time      0.0708: real time      0.0709
    EDDIAG:  cpu time      0.1341: real time      0.1344
  RMM-DIIS:  cpu time      0.7261: real time      0.7283
    ORTHCH:  cpu time      0.0207: real time      0.0208
       DOS:  cpu time      0.0017: real time      0.0017
    CHARGE:  cpu time      0.2370: real time      0.2380
    MIXING:  cpu time      0.0066: real time      0.0066
    --------------------------------------------
      LOOP:  cpu time      1.2756: real time      1.2969

 eigenvalue-minimisations  :  2749
 total energy-change (2. order) :-0.5874827E-04  (-0.3463288E-04)
 number of electron     256.0000000 magnetization 
 augmentation part      -14.6823880 magnetization 

 Broyden mixing:
  rms(total) = 0.67212E-01    rms(broyden)= 0.67212E-01
  rms(prec ) = 0.67510E-01
  weight for this iteration     100.00

 eigenvalues of (default mixing * dielectric matrix)
  average eigenvalue GAMMA=   1.6461
  2.7760  2.7760  2.3612  2.1124  0.9442  0.8569  0.8569  0.4848

 Free energy of the ion-electron system (eV)
  ---------------------------------------------------
  alpha Z        PSCENC =       110.34541491
  Ewald energy   TEWEN  =     -7374.41360687
  -Hartree energ DENC   =      -458.88998464
  -exchange      EXHF   =         0.00000000
  -V(xc)+E(xc)   XCENC  =      -535.60950059
  PAW double counting   =     29743.51590932   -28644.55784424
  entropy T*S    EENTRO =         0.02539681
  eigenvalues    EBANDS =       227.72676264
  atomic energy  EATOM  =      6564.79586099
  Solvation  Ediel_sol  =         0.00000000
  ---------------------------------------------------
  free energy    TOTEN  =      -367.06159166 eV

  energy without entropy =     -367.08698847  energy(sigma->0) =     -367.07005726


--------------------------------------------------------------------------------------------------------




--------------------------------------- Iteration      1(  14)  ---------------------------------------


    POTLOK:  cpu time      0.0822: real time      0.0963
    SETDIJ:  cpu time      0.0754: real time      0.0756
    EDDIAG:  cpu time      0.1340: real time      0.1343
  RMM-DIIS:  cpu time      0.6945: real time      0.6962
    ORTHCH:  cpu time      0.0209: real time      0.0210
       DOS:  cpu time      0.0013: real time      0.0013
    CHARGE:  cpu time      0.2372: real time      0.2380
    MIXING:  cpu time      0.0069: real time      0.0069
    --------------------------------------------
      LOOP:  cpu time      1.2524: real time      1.2697

 eigenvalue-minimisations  :  2600
 total energy-change (2. order) :-0.3033840E-04  (-0.9485893E-05)
 number of electron     256.0000000 magnetization 
 augmentation part      -14.6826176 magnetization 

 Broyden mixing:
  rms(total) = 0.25936E-01    rms(broyden)= 0.25936E-01
  rms(prec ) = 0.26181E-01
  weight for this iteration     100.00

 eigenvalues of (default mixing * dielectric matrix)
  average eigenvalue GAMMA=   1.4768
  2.6066  2.6066  2.3373  1.9750  0.9812  0.9812  0.8434  0.4799  0.4799

 Free energy of the ion-electron system (eV)
  ---------------------------------------------------
  alpha Z        PSCENC =       110.34541491
  Ewald energy   TEWEN  =     -7374.41360687
  -Hartree energ DENC   =      -458.70652730
  -exchange      EXHF   =         0.00000000
  -V(xc)+E(xc)   XCENC  =      -535.65322771
  PAW double counting   =     29432.29757324   -28333.36272565
  entropy T*S    EENTRO =         0.02541417
  eigenvalues    EBANDS =       227.61020222
  atomic energy  EATOM  =      6564.79586099
  Solvation  Ediel_sol  =         0.00000000
  ---------------------------------------------------
  free energy    TOTEN  =      -367.06162200 eV

  energy without entropy =     -367.08703617  energy(sigma->0) =     -367.07009339


--------------------------------------------------------------------------------------------------------




--------------------------------------- Iteration      1(  15)  ---------------------------------------


    POTLOK:  cpu time      0.0790: real time      0.0965
    SETDIJ:  cpu time      0.0706: real time      0.0707
    EDDIAG:  cpu time      0.1361: real time      0.1364
  RMM-DIIS:  cpu time      0.7163: real time      0.7180
    ORTHCH:  cpu time      0.0211: real time      0.0211
       DOS:  cpu time      0.0012: real time      0.0012
    CHARGE:  cpu time      0.2366: real time      0.2373
    MIXING:  cpu time      0.0071: real time      0.0071
    --------------------------------------------
      LOOP:  cpu time      1.2680: real time      1.2885

 eigenvalue-minimisations  :  2635
 total energy-change (2. order) :-0.4643685E-04  (-0.3082100E-05)
 number of electron     256.0000000 magnetization 
 augmentation part      -14.6828132 magnetization 

 Broyden mixing:
  rms(total) = 0.20647E-01    rms(broyden)= 0.20647E-01
  rms(prec ) = 0.20817E-01
  weight for this iteration     100.00

 eigenvalues of (default mixing * dielectric matrix)
  average eigenvalue GAMMA=   1.4320
  2.6834  2.6834  2.2889  1.8531  0.9824  0.9824  0.7588  0.7588  0.8400  0.4890

 Free energy of the ion-electron system (eV)
  ---------------------------------------------------
  alpha Z        PSCENC =       110.34541491
  Ewald energy   TEWEN  =     -7374.41360687
  -Hartree energ DENC   =      -458.69519066
  -exchange      EXHF   =         0.00000000
  -V(xc)+E(xc)   XCENC  =      -535.65069084
  PAW double counting   =     29418.71503321   -28319.77744344
  entropy T*S    EENTRO =         0.02543694
  eigenvalues    EBANDS =       227.59351732
  atomic energy  EATOM  =      6564.79586099
  Solvation  Ediel_sol  =         0.00000000
  ---------------------------------------------------
  free energy    TOTEN  =      -367.06166844 eV

  energy without entropy =     -367.08710538  energy(sigma->0) =     -367.07014742


--------------------------------------------------------------------------------------------------------




--------------------------------------- Iteration      1(  16)  ---------------------------------------


    POTLOK:  cpu time      0.0824: real time      0.0914
    SETDIJ:  cpu time      0.0725: real time      0.0727
    EDDIAG:  cpu time      0.1389: real time      0.1392
  RMM-DIIS:  cpu time      0.7037: real time      0.7054
    ORTHCH:  cpu time      0.0218: real time      0.0223
       DOS:  cpu time      0.0013: real time      0.0013
    CHARGE:  cpu time      0.2396: real time      0.2404
    MIXING:  cpu time      0.0059: real time      0.0059
    --------------------------------------------
      LOOP:  cpu time      1.2663: real time      1.2787

 eigenvalue-minimisations  :  2592
 total energy-change (2. order) :-0.2978483E-04  (-0.2264940E-05)
 number of electron     256.0000000 magnetization 
 augmentation part      -14.6824462 magnetization 

 Broyden mixing:
  rms(total) = 0.11203E-01    rms(broyden)= 0.11203E-01
  rms(prec ) = 0.11271E-01
  weight for this iteration     100.00

 eigenvalues of (default mixing * dielectric matrix)
  average eigenvalue GAMMA=   1.4198
  2.7100  2.7100  2.1098  2.1098  1.0540  1.0540  0.9677  0.9677  0.8068  0.5112
  0.6162

 Free energy of the ion-electron system (eV)
  ---------------------------------------------------
  alpha Z        PSCENC =       110.34541491
  Ewald energy   TEWEN  =     -7374.41360687
  -Hartree energ DENC   =      -458.79505495
  -exchange      EXHF   =         0.00000000
  -V(xc)+E(xc)   XCENC  =      -535.64278671
  PAW double counting   =     29384.53222987   -28285.59724480
  entropy T*S    EENTRO =         0.02544508
  eigenvalues    EBANDS =       227.68804425
  atomic energy  EATOM  =      6564.79586099
  Solvation  Ediel_sol  =         0.00000000
  ---------------------------------------------------
  free energy    TOTEN  =      -367.06169822 eV

  energy without entropy =     -367.08714330  energy(sigma->0) =     -367.07017991


--------------------------------------------------------------------------------------------------------




--------------------------------------- Iteration      1(  17)  ---------------------------------------


    POTLOK:  cpu time      0.0779: real time      0.0934
    SETDIJ:  cpu time      0.0708: real time      0.0710
    EDDIAG:  cpu time      0.1332: real time      0.1335
  RMM-DIIS:  cpu time      0.6881: real time      0.6900
    ORTHCH:  cpu time      0.0208: real time      0.0208
       DOS:  cpu time      0.0017: real time      0.0017
    CHARGE:  cpu time      0.2387: real time      0.2394
    MIXING:  cpu time      0.0070: real time      0.0070
    --------------------------------------------
      LOOP:  cpu time      1.2383: real time      1.2570

 eigenvalue-minimisations  :  2572
 total energy-change (2. order) :-0.5638364E-05  (-0.7699643E-06)
 number of electron     256.0000000 magnetization 
 augmentation part      -14.6822263 magnetization 

 Broyden mixing:
  rms(total) = 0.30496E-02    rms(broyden)= 0.30496E-02
  rms(prec ) = 0.30850E-02
  weight for this iteration     100.00

 eigenvalues of (default mixing * dielectric matrix)
  average eigenvalue GAMMA=   1.6307
  2.2654  2.2654  2.7605  2.7605  2.4030  2.1299  0.9856  0.9856  0.8740  0.8204
  0.8204  0.4983

 Free energy of the ion-electron system (eV)
  ---------------------------------------------------
  alpha Z        PSCENC =       110.34541491
  Ewald energy   TEWEN  =     -7374.41360687
  -Hartree energ DENC   =      -458.82170558
  -exchange      EXHF   =         0.00000000
  -V(xc)+E(xc)   XCENC  =      -535.64493052
  PAW double counting   =     29335.88099408   -28236.94658964
  entropy T*S    EENTRO =         0.02545004
  eigenvalues    EBANDS =       227.71740874
  atomic energy  EATOM  =      6564.79586099
  Solvation  Ediel_sol  =         0.00000000
  ---------------------------------------------------
  free energy    TOTEN  =      -367.06170386 eV

  energy without entropy =     -367.08715390  energy(sigma->0) =     -367.07018721


--------------------------------------------------------------------------------------------------------




--------------------------------------- Iteration      1(  18)  ---------------------------------------


    POTLOK:  cpu time      0.0788: real time      0.0958
    SETDIJ:  cpu time      0.0720: real time      0.0722
    EDDIAG:  cpu time      0.1340: real time      0.1343
  RMM-DIIS:  cpu time      0.4653: real time      0.4664
    ORTHCH:  cpu time      0.0210: real time      0.0210
       DOS:  cpu time      0.0016: real time      0.0016
    --------------------------------------------
      LOOP:  cpu time      0.7726: real time      0.7913

 eigenvalue-minimisations  :  1596
 total energy-change (2. order) :-0.9212426E-06  (-0.1779758E-06)
 number of electron     256.0000000 magnetization 
 augmentation part      -14.6822263 magnetization 

 Free energy of the ion-electron system (eV)
  ---------------------------------------------------
  alpha Z        PSCENC =       110.34541491
  Ewald energy   TEWEN  =     -7374.41360687
  -Hartree energ DENC   =      -458.84168652
  -exchange      EXHF   =         0.00000000
  -V(xc)+E(xc)   XCENC  =      -535.64484041
  PAW double counting   =     29317.94723637   -28219.01323115
  entropy T*S    EENTRO =         0.02544968
  eigenvalues    EBANDS =       227.73769821
  atomic energy  EATOM  =      6564.79586099
  Solvation  Ediel_sol  =         0.00000000
  ---------------------------------------------------
  free energy    TOTEN  =      -367.06170478 eV

  energy without entropy =     -367.08715447  energy(sigma->0) =     -367.07018801


--------------------------------------------------------------------------------------------------------




 average (electrostatic) potential at core
  the test charge radii are     0.9892
  (the norm of the test charge is              1.0000)
       1 -82.7492       2 -82.7492       3 -82.7492       4 -82.7492       5 -82.7492
       6 -82.7492       7 -82.7492       8 -82.7492       9 -82.7492      10 -82.7492
      11 -82.7492      12 -82.7492      13 -82.7492      14 -82.7492      15 -82.7492
      16 -82.7492      17 -82.7492      18 -82.7492      19 -82.7492      20 -82.7492
      21 -82.7492      22 -82.7492      23 -82.7492      24 -82.7492      25 -82.7492
      26 -82.7492      27 -82.7492      28 -82.7492      29 -82.7492      30 -82.7492
      31 -82.7492      32 -82.7492      33 -82.7492      34 -82.7492      35 -82.7492
      36 -82.7492      37 -82.7492      38 -82.7492      39 -82.7492      40 -82.7492
      41 -82.7492      42 -82.7492      43 -82.7492      44 -82.7492      45 -82.7492
      46 -82.7492      47 -82.7492      48 -82.7492      49 -82.7492      50 -82.7492
      51 -82.7492      52 -82.7492      53 -82.7492      54 -82.7492      55 -82.7492
      56 -82.7492      57 -82.7492      58 -82.7492      59 -82.7492      60 -82.7492
      61 -82.7492      62 -82.7492      63 -82.7492      64 -82.7492
 
 
 
 E-fermi :   6.2844     XC(G=0):  -9.6494     alpha+bet :-12.2843

 val. band max:        6.1038257436   @ k =   0.0000   0.0000   0.0000
 cond. band min:       6.4227042373   @ k =   0.0000   0.0000   0.0000
 fundamental gap:      0.3188784937
 Fermi energy:         6.2844361853

 k-point     1 :       0.0000    0.0000    0.0000
  band No.  band energies     occupation 
      1      -6.1171      2.00000
      2      -5.0317      2.00000
      3      -5.0317      2.00000
      4      -4.9951      2.00000
      5      -4.9950      2.00000
      6      -4.9943      2.00000
      7      -4.9943      2.00000
      8      -4.0808      2.00000
      9      -4.0808      2.00000
     10      -4.0232      2.00000
     11      -4.0232      2.00000
     12      -4.0232      2.00000
     13      -4.0232      2.00000
     14      -3.9969      2.00000
     15      -3.9969      2.00000
     16      -3.9969      2.00000
     17      -3.9969      2.00000
     18      -3.9636      2.00000
     19      -3.9636      2.00000
     20      -3.7685      2.00000
     21      -3.7684      2.00000
     22      -3.6338      2.00000
     23      -3.6338      2.00000
     24      -1.9439      2.00000
     25      -1.9439      2.00000
     26      -1.9060      2.00000
     27      -1.8213      2.00000
     28      -1.8213      2.00000
     29      -1.7875      2.00000
     30      -1.7875      2.00000
     31      -1.7429      2.00000
     32      -1.7429      2.00000
     33      -1.7401      2.00000
     34      -1.6954      2.00000
     35      -1.6954      2.00000
     36      -1.6954      2.00000
     37      -1.6954      2.00000
     38      -1.6031      2.00000
     39      -1.6031      2.00000
     40      -1.5604      2.00000
     41      -1.5604      2.00000
     42      -1.1020      2.00000
     43      -1.1020      2.00000
     44      -1.0722      2.00000
     45      -1.0721      2.00000
     46       0.4618      2.00000
     47       0.4618      2.00000
     48       0.4618      2.00000
     49       0.4618      2.00000
     50       0.4934      2.00000
     51       0.4935      2.00000
     52       0.5340      2.00000
     53       0.5340      2.00000
     54       0.5340      2.00000
     55       0.5340      2.00000
     56       0.5711      2.00000
     57       0.5711      2.00000
     58       2.0305      2.00000
     59       2.0305      2.00000
     60       2.0320      2.00000
     61       2.0320      2.00000
     62       2.0325      2.00000
     63       2.0325      2.00000
     64       2.0325      2.00000
     65       2.0325      2.00000
     66       2.0382      2.00000
     67       2.0382      2.00000
     68       2.0414      2.00000
     69       2.0414      2.00000
     70       2.0733      2.00000
     71       2.0733      2.00000
     72       2.0733      2.00000
     73       2.0733      2.00000
     74       2.1615      2.00000
     75       2.1615      2.00000
     76       2.1850      2.00000
     77       2.1850      2.00000
     78       2.1850      2.00000
     79       2.1850      2.00000
     80       2.2068      2.00000
     81       2.2068      2.00000
     82       2.4366      2.00000
     83       2.4366      2.00000
     84       2.5787      2.00000
     85       2.5787      2.00000
     86       2.5846      2.00000
     87       2.5846      2.00000
     88       2.9518      2.00000
     89       3.0590      2.00000
     90       3.0590      2.00000
     91       3.1678      2.00000
     92       3.2139      2.00000
     93       3.2139      2.00000
     94       3.9597      2.00000
     95       3.9597      2.00000
     96       4.0312      2.00000
     97       4.0312      2.00000
     98       4.0764      2.00000
     99       4.0764      2.00000
    100       4.1524      2.00000
    101       4.1524      2.00000
    102       4.1745      2.00000
    103       4.1745      2.00000
    104       4.1747      2.00000
    105       4.1747      2.00000
    106       4.5813      2.00000
    107       4.5814      2.00000
    108       4.6298      2.00000
    109       4.6298      2.00000
    110       4.6298      2.00000
    111       4.6298      2.00000
    112       4.6792      2.00000
    113       4.6792      2.00000
    114       4.6818      2.00000
    115       4.6818      2.00000
    116       4.7763      2.00000
    117       4.7763      2.00000
    118       4.7940      2.00000
    119       4.7940      2.00000
    120       4.7940      2.00000
    121       4.7940      2.00000
    122       4.8735      2.00000
    123       4.8735      2.00000
    124       4.9733      2.00000
    125       4.9733      2.00000
    126       5.9523      2.04058
    127       6.0955      2.03678
    128       6.1038      2.02384
    129       6.4227      0.08637
    130       6.5354     -0.07064
    131       6.5354     -0.07064
    132       6.6520     -0.02604
    133       6.6955     -0.01332
    134       6.6955     -0.01332
    135       7.0089     -0.00000
    136       7.0089     -0.00000
    137       7.0090     -0.00000
    138       7.0090     -0.00000
    139       7.1672     -0.00000
    140       7.1672     -0.00000
    141       7.4850     -0.00000
    142       7.4850     -0.00000
    143       7.6879     -0.00000
    144       7.6880     -0.00000
    145       8.2987     -0.00000
    146       8.2994     -0.00000
    147       8.3617     -0.00000
    148       8.3620     -0.00000
    149       8.3623     -0.00000
    150       8.3627     -0.00000
    151       8.4337     -0.00000
    152       8.4350     -0.00000
    153       8.4356     -0.00000
    154       8.5208     -0.00000
    155       8.5504     -0.00000
    156       8.5515     -0.00000
    157       8.5564     -0.00000
    158       8.5613     -0.00000
    159       8.7710     -0.00000
    160       9.0719     -0.00000
    161       9.1000     -0.00000
    162       9.1519     -0.00000

 k-point     2 :       0.5000    0.0000    0.0000
  band No.  band energies     occupation 
      1      -5.8435      2.00000
      2      -5.8435      2.00000
      3      -4.7742      2.00000
      4      -4.7742      2.00000
      5      -4.7456      2.00000
      6      -4.7456      2.00000
      7      -4.7456      2.00000
      8      -4.7456      2.00000
      9      -4.7154      2.00000
     10      -4.7154      2.00000
     11      -3.9051      2.00000
     12      -3.9051      2.00000
     13      -3.9051      2.00000
     14      -3.9051      2.00000
     15      -3.8233      2.00000
     16      -3.8233      2.00000
     17      -3.8233      2.00000
     18      -3.8233      2.00000
     19      -3.7116      2.00000
     20      -3.7116      2.00000
     21      -3.0115      2.00000
     22      -3.0115      2.00000
     23      -2.9280      2.00000
     24      -2.9280      2.00000
     25      -2.9280      2.00000
     26      -2.9280      2.00000
     27      -2.8424      2.00000
     28      -2.8424      2.00000
     29      -1.8308      2.00000
     30      -1.8308      2.00000
     31      -1.7978      2.00000
     32      -1.7978      2.00000
     33      -1.6833      2.00000
     34      -1.6833      2.00000
     35      -1.6534      2.00000
     36      -1.6534      2.00000
     37      -0.6432      2.00000
     38      -0.6432      2.00000
     39      -0.5730      2.00000
     40      -0.5730      2.00000
     41      -0.5729      2.00000
     42      -0.5729      2.00000
     43      -0.5076      2.00000
     44      -0.5076      2.00000
     45      -0.4862      2.00000
     46      -0.4862      2.00000
     47      -0.4862      2.00000
     48      -0.4862      2.00000
     49      -0.4736      2.00000
     50      -0.4736      2.00000
     51      -0.4736      2.00000
     52      -0.4736      2.00000
     53       0.1618      2.00000
     54       0.1618      2.00000
     55       1.6857      2.00000
     56       1.6857      2.00000
     57       1.6886      2.00000
     58       1.6886      2.00000
     59       1.6886      2.00000
     60       1.6886      2.00000
     61       1.6919      2.00000
     62       1.6919      2.00000
     63       1.7285      2.00000
     64       1.7285      2.00000
     65       1.7487      2.00000
     66       1.7487      2.00000
     67       1.7487      2.00000
     68       1.7487      2.00000
     69       1.7753      2.00000
     70       1.7753      2.00000
     71       2.4223      2.00000
     72       2.4223      2.00000
     73       2.4650      2.00000
     74       2.4650      2.00000
     75       2.5001      2.00000
     76       2.5001      2.00000
     77       2.5446      2.00000
     78       2.5446      2.00000
     79       3.1996      2.00000
     80       3.1996      2.00000
     81       3.2417      2.00000
     82       3.2417      2.00000
     83       3.2417      2.00000
     84       3.2417      2.00000
     85       3.2655      2.00000
     86       3.2655      2.00000
     87       3.2750      2.00000
     88       3.2750      2.00000
     89       3.2978      2.00000
     90       3.2978      2.00000
     91       3.2978      2.00000
     92       3.2978      2.00000
     93       3.3282      2.00000
     94       3.3282      2.00000
     95       3.3718      2.00000
     96       3.3718      2.00000
     97       3.3718      2.00000
     98       3.3718      2.00000
     99       3.4584      2.00000
    100       3.4584      2.00000
    101       3.4590      2.00000
    102       3.4590      2.00000
    103       3.4738      2.00000
    104       3.4738      2.00000
    105       3.4738      2.00000
    106       3.4738      2.00000
    107       4.5543      2.00000
    108       4.5543      2.00000
    109       4.5543      2.00000
    110       4.5543      2.00000
    111       4.5558      2.00000
    112       4.5558      2.00000
    113       4.5609      2.00000
    114       4.5609      2.00000
    115       4.6471      2.00000
    116       4.6471      2.00000
    117       4.8227      2.00000
    118       4.8227      2.00000
    119       4.8227      2.00000
    120       4.8227      2.00000
    121       4.8897      2.00000
    122       4.8897      2.00000
    123       4.8897      2.00000
    124       4.8897      2.00000
    125       5.2646      2.00000
    126       5.2646      2.00000
    127       5.2677      2.00000
    128       5.2677      2.00000
    129       6.6321     -0.03382
    130       6.6321     -0.03382
    131       7.4811     -0.00000
    132       7.4811     -0.00000
    133       7.6541     -0.00000
    134       7.6541     -0.00000
    135       7.7913     -0.00000
    136       7.7914     -0.00000
    137       7.8150     -0.00000
    138       7.8151     -0.00000
    139       7.9553     -0.00000
    140       7.9555     -0.00000
    141       8.0600     -0.00000
    142       8.0603     -0.00000
    143       8.2697     -0.00000
    144       8.2704     -0.00000
    145       8.3376     -0.00000
    146       8.3379     -0.00000
    147       8.3405     -0.00000
    148       8.3444     -0.00000
    149       8.4219     -0.00000
    150       8.4237     -0.00000
    151       8.4379     -0.00000
    152       8.4392     -0.00000
    153       8.4409     -0.00000
    154       8.4481     -0.00000
    155       8.5578     -0.00000
    156       8.5620     -0.00000
    157       8.5682     -0.00000
    158       8.5848     -0.00000
    159       8.7387     -0.00000
    160       8.7928     -0.00000
    161       8.8388     -0.00000
    162       8.8600     -0.00000

 k-point     3 :       0.0000    0.5000    0.0000
  band No.  band energies     occupation 
[...]
 -0.000  -0.000   4.174   0.000  -0.000   7.775   0.000  -0.000
  0.001   0.002   0.000   4.174   0.000   0.000   7.775   0.000
 -0.000  -0.000  -0.000   0.000   4.174  -0.000   0.000   7.775
 -0.000  -0.000   7.775   0.000  -0.000  14.496   0.000  -0.000
  0.002   0.003   0.000   7.775   0.000   0.000  14.496   0.000
 -0.000  -0.000  -0.000   0.000   7.775  -0.000   0.000  14.496
 total augmentation occupancy for first ion, spin component:           1
  6.130  -2.392   0.000  -0.054   0.000   0.000   0.020   0.000
 -2.392   1.042   0.000   0.027   0.000   0.000  -0.010   0.000
  0.000   0.000   3.013   0.000  -0.009  -0.678  -0.000  -0.000
 -0.054   0.027   0.000   3.014   0.000   0.000  -0.678   0.000
  0.000   0.000  -0.009   0.000   3.052  -0.000   0.000  -0.693
  0.000   0.000  -0.678   0.000  -0.000   0.162   0.000   0.000
  0.020  -0.010   0.000  -0.678   0.000   0.000   0.162   0.000
  0.000   0.000  -0.000   0.000  -0.693   0.000   0.000   0.166


------------------------ aborting loop because EDIFF is reached ----------------------------------------


    CHARGE:  cpu time      0.2461: real time      0.2486
    FORLOC:  cpu time      0.0216: real time      0.0217
    FORNL :  cpu time      0.6879: real time      0.6951
    STRESS:  cpu time      2.1264: real time      2.1472
    FORCOR:  cpu time      0.0872: real time      0.0879
    FORHAR:  cpu time      0.0352: real time      0.0355
    MIXING:  cpu time      0.0380: real time      0.0382
    OFIELD:  cpu time      0.0000: real time      0.0000

  FORCE on cell =-STRESS in cart. coord.  units (eV):
  Direction    XX          YY          ZZ          XY          YZ          ZX
  --------------------------------------------------------------------------------------
  Alpha Z   110.34541   110.34541   110.34541
  Ewald   -2413.89241 -2480.76249 -2480.51390   -13.82499    -0.00000     0.00000
  Hartree   160.14667   149.22774   149.00931    -8.41132    -0.00000    -0.00000
  E(xc)    -822.93583  -822.31433  -822.35115     0.12684    -0.00000    -0.00000
  Local    -972.44527  -891.22227  -891.63869    24.24629    -0.00000     0.00000
  n-local  2506.11768  2495.65584  2496.25868    -1.23237     0.00000    -0.00000
  augment  -368.78582  -368.79238  -368.82192     0.73150     0.00000     0.00000
  Kinetic  1813.08766  1834.60695  1833.85648   -12.82610     0.00000    -0.00000
  Fock        0.00000     0.00000     0.00000     0.00000     0.00000     0.00000
  -------------------------------------------------------------------------------------
  Total      11.63810    26.74448    26.14422   -11.19015     0.00000     0.00000
  in kB      14.92219    34.29135    33.52170   -14.34784     0.00000     0.00000
  external pressure =       27.58 kB  Pullay stress =        0.00 kB


 VOLUME and BASIS-vectors are now :
 -----------------------------------------------------------------------------
  energy-cutoff  :      400.00
  volume of cell :     1249.57
      direct lattice vectors                 reciprocal lattice vectors
    10.914429612  0.107004016  0.000000000     0.091630812 -0.000916306  0.000000000
     0.107004016 10.700420580  0.000000000    -0.000916306  0.093463434  0.000000000
     0.000000000  0.000000000 10.700420580     0.000000000  0.000000000  0.093454271

  length of vectors
    10.914954128 10.700955586 10.700420580     0.091635393  0.093467925  0.093454271


 FORCES acting on ions
    electron-ion (+dipol)            ewald-force                    non-local-force                 convergence-correction
 -----------------------------------------------------------------------------------------------
   0.151E-08 -.652E-10 -.168E+01   -.178E-13 0.160E-13 0.120E+01   -.358E-20 0.242E-20 0.480E+00   -.823E-14 0.121E-12 0.183E-04
   0.151E-08 -.652E-10 -.168E+01   -.253E-13 0.160E-13 0.120E+01   0.316E-20 0.113E-20 0.480E+00   -.497E-14 0.151E-12 0.183E-04
   0.151E-08 -.653E-10 -.168E+01   -.333E-13 0.209E-13 0.120E+01   0.172E-20 -.149E-20 0.480E+00   -.404E-13 -.123E-12 0.183E-04
   0.151E-08 -.652E-10 -.168E+01   -.266E-13 0.120E-13 0.120E+01   0.166E-20 -.183E-20 0.480E+00   0.350E-13 -.149E-12 0.183E-04
   0.151E-08 -.652E-10 -.168E+01   -.222E-13 0.107E-13 0.120E+01   -.413E-21 -.147E-20 0.480E+00   -.174E-14 0.132E-12 0.183E-04
   0.151E-08 -.652E-10 -.168E+01   -.977E-14 0.178E-13 0.120E+01   0.111E-20 0.968E-21 0.480E+00   -.492E-14 0.998E-13 0.183E-04
   0.151E-08 -.649E-10 -.168E+01   -.231E-13 0.155E-13 0.120E+01   -.252E-20 -.209E-20 0.480E+00   0.433E-13 -.134E-12 0.183E-04
   0.151E-08 -.656E-10 -.168E+01   -.178E-13 0.142E-13 0.120E+01   0.258E-20 -.132E-20 0.480E+00   -.426E-13 -.109E-12 0.183E-04
   -.104E-09 -.319E-09 0.168E+01   -.124E-13 0.218E-13 -.120E+01   -.487E-20 0.761E-22 -.480E+00   0.393E-13 -.104E-12 -.183E-04
   -.104E-09 -.319E-09 0.168E+01   -.178E-13 0.142E-13 -.120E+01   -.468E-20 -.124E-20 -.480E+00   -.301E-13 0.120E-13 -.183E-04
   -.104E-09 -.320E-09 0.168E+01   -.306E-13 0.111E-13 -.120E+01   0.353E-20 0.142E-20 -.480E+00   0.173E-13 0.969E-13 -.183E-04
   -.104E-09 -.319E-09 0.168E+01   -.213E-13 0.195E-13 -.120E+01   0.538E-20 -.741E-21 -.480E+00   -.903E-14 -.844E-14 -.183E-04
   -.104E-09 -.320E-09 0.168E+01   -.280E-13 0.200E-13 -.120E+01   0.183E-20 0.687E-21 -.480E+00   -.348E-13 -.676E-13 -.183E-04
   -.104E-09 -.320E-09 0.168E+01   -.355E-13 0.195E-13 -.120E+01   0.677E-20 -.997E-22 -.480E+00   0.535E-13 -.365E-13 -.183E-04
   -.104E-09 -.319E-09 0.168E+01   -.204E-13 0.155E-13 -.120E+01   -.501E-20 0.298E-20 -.480E+00   -.191E-13 0.602E-13 -.183E-04
   -.104E-09 -.319E-09 0.168E+01   -.178E-13 0.160E-13 -.120E+01   -.339E-20 0.373E-21 -.480E+00   0.257E-13 0.545E-13 -.183E-04
   0.151E-08 -.653E-10 -.168E+01   -.102E-13 -.933E-14 0.120E+01   -.170E-20 0.199E-20 0.480E+00   0.667E-14 0.867E-13 0.183E-04
   0.151E-08 -.652E-10 -.168E+01   -.711E-14 -.933E-14 0.120E+01   -.191E-20 -.260E-20 0.480E+00   -.680E-13 0.664E-13 0.183E-04
   0.151E-08 -.653E-10 -.168E+01   -.577E-14 -.555E-14 0.120E+01   -.296E-21 -.104E-21 0.480E+00   0.478E-13 -.896E-13 0.183E-04
   0.151E-08 -.653E-10 -.168E+01   -.151E-13 -.533E-14 0.120E+01   0.450E-20 0.123E-20 0.480E+00   -.165E-13 -.574E-13 0.183E-04
   0.151E-08 -.653E-10 -.168E+01   -.711E-14 -.400E-14 0.120E+01   0.183E-22 0.211E-20 0.480E+00   -.275E-13 0.406E-13 0.183E-04
   0.151E-08 -.654E-10 -.168E+01   0.178E-14 -.888E-15 0.120E+01   0.326E-20 -.218E-20 0.480E+00   0.748E-13 0.341E-13 0.183E-04
   0.151E-08 -.649E-10 -.168E+01   -.266E-13 -.400E-14 0.120E+01   0.205E-22 0.110E-20 0.480E+00   -.583E-13 -.428E-13 0.183E-04
   0.151E-08 -.658E-10 -.168E+01   -.284E-13 -.355E-14 0.120E+01   -.178E-20 -.161E-20 0.480E+00   0.226E-13 -.310E-13 0.183E-04
   -.104E-09 -.319E-09 0.168E+01   -.755E-14 -.633E-14 -.120E+01   -.335E-20 -.156E-20 -.480E+00   -.783E-13 0.153E-12 -.183E-04
   -.104E-09 -.320E-09 0.168E+01   -.147E-13 -.611E-14 -.120E+01   -.171E-20 0.150E-20 -.480E+00   0.122E-12 0.594E-13 -.183E-04
   -.104E-09 -.319E-09 0.168E+01   -.888E-14 -.124E-13 -.120E+01   -.315E-20 -.112E-20 -.480E+00   -.103E-12 -.141E-12 -.183E-04
   -.104E-09 -.319E-09 0.168E+01   -.124E-13 -.860E-15 -.120E+01   0.526E-20 0.971E-21 -.480E+00   0.892E-13 -.628E-13 -.183E-04
   -.104E-09 -.321E-09 0.168E+01   -.133E-14 -.971E-15 -.120E+01   -.556E-20 -.548E-20 -.480E+00   0.786E-13 0.186E-12 -.183E-04
   -.104E-09 -.319E-09 0.168E+01   -.133E-14 -.971E-15 -.120E+01   0.294E-20 -.129E-20 -.480E+00   -.115E-12 0.134E-12 -.183E-04
   -.104E-09 -.319E-09 0.168E+01   0.888E-14 -.709E-14 -.120E+01   -.322E-20 -.969E-21 -.480E+00   0.122E-12 -.164E-12 -.183E-04
   -.104E-09 -.319E-09 0.168E+01   0.160E-13 -.102E-13 -.120E+01   -.169E-20 -.192E-20 -.480E+00   -.797E-13 -.124E-12 -.183E-04
   0.151E-08 -.652E-10 -.168E+01   -.155E-14 -.444E-15 0.120E+01   0.509E-20 -.218E-20 0.480E+00   0.243E-14 0.155E-12 0.183E-04
   0.151E-08 -.652E-10 -.168E+01   -.355E-14 0.311E-14 0.120E+01   0.173E-20 -.196E-20 0.480E+00   0.370E-13 0.519E-13 0.183E-04
   0.151E-08 -.653E-10 -.168E+01   0.222E-14 0.131E-13 0.120E+01   -.337E-20 -.109E-20 0.480E+00   -.471E-13 -.155E-12 0.183E-04
   0.151E-08 -.653E-10 -.168E+01   -.355E-14 0.933E-14 0.120E+01   -.665E-20 -.851E-22 0.480E+00   0.163E-13 -.545E-13 0.183E-04
   0.151E-08 -.653E-10 -.168E+01   0.173E-13 0.888E-15 0.120E+01   -.491E-20 -.118E-21 0.480E+00   0.174E-13 0.193E-12 0.183E-04
   0.151E-08 -.653E-10 -.168E+01   0.155E-13 0.444E-14 0.120E+01   -.466E-20 0.165E-20 0.480E+00   -.519E-13 0.988E-13 0.183E-04
   0.151E-08 -.657E-10 -.168E+01   0.160E-13 0.444E-15 0.120E+01   0.391E-20 0.153E-22 0.480E+00   0.580E-13 -.192E-12 0.183E-04
   0.151E-08 -.657E-10 -.168E+01   0.107E-13 0.711E-14 0.120E+01   0.191E-20 -.247E-20 0.480E+00   -.144E-13 -.114E-12 0.183E-04
   -.104E-09 -.319E-09 0.168E+01   0.386E-14 -.400E-14 -.120E+01   0.296E-20 -.226E-20 -.480E+00   -.677E-13 -.485E-13 -.183E-04
   -.104E-09 -.319E-09 0.168E+01   -.613E-14 0.311E-14 -.120E+01   -.390E-21 -.290E-20 -.480E+00   -.596E-14 -.254E-13 -.183E-04
   -.104E-09 -.319E-09 0.168E+01   0.172E-13 -.266E-14 -.120E+01   0.324E-20 0.184E-20 -.480E+00   -.289E-13 0.427E-13 -.183E-04
   -.104E-09 -.319E-09 0.168E+01   0.873E-14 0.444E-14 -.120E+01   -.345E-20 0.202E-20 -.480E+00   0.550E-13 0.211E-13 -.183E-04
   -.104E-09 -.318E-09 0.168E+01   0.129E-13 0.000E+00 -.120E+01   0.166E-20 -.740E-21 -.480E+00   0.448E-13 -.876E-13 -.183E-04
   -.104E-09 -.320E-09 0.168E+01   0.182E-13 0.711E-14 -.120E+01   -.192E-20 -.156E-20 -.480E+00   0.145E-14 -.521E-13 -.183E-04
   -.104E-09 -.320E-09 0.168E+01   0.111E-13 0.533E-14 -.120E+01   0.155E-20 -.195E-20 -.480E+00   0.261E-13 0.732E-13 -.183E-04
   -.104E-09 -.319E-09 0.168E+01   0.581E-14 0.533E-14 -.120E+01   0.376E-22 0.187E-22 -.480E+00   -.717E-13 0.646E-13 -.183E-04
   0.151E-08 -.654E-10 -.168E+01   0.335E-13 -.195E-13 0.120E+01   -.172E-20 -.499E-21 0.480E+00   0.113E-12 0.135E-13 0.183E-04
   0.151E-08 -.650E-10 -.168E+01   0.289E-13 -.195E-13 0.120E+01   -.337E-20 0.225E-20 0.480E+00   -.132E-12 0.929E-13 0.183E-04
   0.151E-08 -.651E-10 -.168E+01   0.244E-13 -.184E-13 0.120E+01   0.389E-20 0.137E-20 0.480E+00   0.936E-13 -.213E-13 0.183E-04
   0.151E-08 -.655E-10 -.168E+01   0.284E-13 -.213E-13 0.120E+01   -.112E-20 0.154E-20 0.480E+00   -.793E-13 -.875E-13 0.183E-04
   0.151E-08 -.647E-10 -.168E+01   0.135E-13 -.195E-13 0.120E+01   0.361E-20 -.987E-21 0.480E+00   -.101E-12 0.622E-13 0.183E-04
   0.151E-08 -.661E-10 -.168E+01   0.218E-13 -.124E-13 0.120E+01   -.335E-20 -.519E-20 0.480E+00   0.131E-12 0.509E-13 0.183E-04
   0.151E-08 -.649E-10 -.168E+01   0.622E-14 -.187E-13 0.120E+01   -.174E-20 0.252E-20 0.480E+00   -.991E-13 -.519E-13 0.183E-04
   0.151E-08 -.651E-10 -.168E+01   0.142E-13 -.711E-14 0.120E+01   -.324E-20 0.109E-20 0.480E+00   0.955E-13 -.503E-13 0.183E-04
   -.104E-09 -.319E-09 0.168E+01   0.851E-14 -.161E-13 -.120E+01   0.977E-22 -.118E-20 -.480E+00   0.638E-13 0.145E-12 -.183E-04
   -.104E-09 -.319E-09 0.168E+01   0.962E-14 -.161E-13 -.120E+01   -.339E-20 0.532E-20 -.480E+00   -.973E-13 0.120E-12 -.183E-04
   -.104E-09 -.319E-09 0.168E+01   0.141E-13 -.208E-13 -.120E+01   0.505E-20 -.229E-20 -.480E+00   0.209E-13 -.132E-12 -.183E-04
   -.104E-09 -.319E-09 0.168E+01   0.172E-13 -.250E-13 -.120E+01   -.198E-21 0.345E-20 -.480E+00   -.346E-13 -.127E-12 -.183E-04
   -.104E-09 -.319E-09 0.168E+01   0.154E-13 -.159E-13 -.120E+01   0.487E-20 -.316E-20 -.480E+00   -.629E-13 0.166E-12 -.183E-04
   -.104E-09 -.319E-09 0.168E+01   0.286E-13 -.159E-13 -.120E+01   -.542E-21 0.518E-20 -.480E+00   0.652E-13 0.998E-13 -.183E-04
   -.104E-09 -.319E-09 0.168E+01   0.299E-13 -.168E-13 -.120E+01   -.427E-21 -.599E-22 -.480E+00   -.338E-13 -.150E-12 -.183E-04
   -.104E-09 -.320E-09 0.168E+01   0.362E-13 -.247E-13 -.120E+01   -.185E-20 0.232E-20 -.480E+00   0.176E-13 -.980E-13 -.183E-04
 -----------------------------------------------------------------------------------------------
   0.450E-07 -.123E-07 0.111E-04   -.245E-13 -.574E-13 -.158E-13   -.118E-19 -.102E-19 -.872E-14   -.333E-13 0.474E-13 0.269E-09
 
 
 POSITION                                       TOTAL-FORCE (eV/Angst)
 -----------------------------------------------------------------------------------
      0.00000      0.00000      0.00799         0.000000     -0.000000      0.000145
      0.00000      0.00000      5.35820         0.000000     -0.000000      0.000145
      0.05350      5.35021      0.00799         0.000000     -0.000000      0.000145
      0.05350      5.35021      5.35820         0.000000     -0.000000      0.000145
      5.45721      0.05350      0.00799        -0.000000      0.000000      0.000145
      5.45721      0.05350      5.35820        -0.000000      0.000000      0.000145
      5.51072      5.40371      0.00799        -0.000000      0.000000      0.000145
      5.51072      5.40371      5.35820        -0.000000      0.000000      0.000145
      4.13304      4.05278      1.32956        -0.000000      0.000000     -0.000145
      4.13304      4.05278      6.67977        -0.000000      0.000000     -0.000145
      4.18654      9.40299      1.32956        -0.000000     -0.000000     -0.000145
      4.18654      9.40299      6.67977        -0.000000     -0.000000     -0.000145
      9.59025      4.10629      1.32956         0.000000     -0.000000     -0.000145
      9.59025      4.10629      6.67977         0.000000     -0.000000     -0.000145
      9.64375      9.45650      1.32956         0.000000      0.000000     -0.000145
      9.64375      9.45650      6.67977        -0.000000     -0.000000     -0.000145
      0.02675      2.67511      2.68310         0.000000      0.000000      0.000145
      0.02675      2.67511      8.03331         0.000000     -0.000000      0.000145
      0.08025      8.02532      2.68310         0.000000     -0.000000      0.000145
      0.08025      8.02532      8.03331         0.000000     -0.000000      0.000145
      5.48397      2.72861      2.68310        -0.000000     -0.000000      0.000145
      5.48397      2.72861      8.03331        -0.000000     -0.000000      0.000145
      5.53747      8.07882      2.68310        -0.000000      0.000000      0.000145
      5.53747      8.07882      8.03331        -0.000000      0.000000      0.000145
      4.10629      1.37768      4.00467         0.000000     -0.000000     -0.000145
      4.10629      1.37768      9.35488         0.000000     -0.000000     -0.000145
      4.15979      6.72789      4.00467        -0.000000      0.000000     -0.000145
      4.15979      6.72789      9.35488        -0.000000      0.000000     -0.000145
      9.56350      1.43118      4.00467         0.000000     -0.000000     -0.000145
      9.56350      1.43118      9.35488         0.000000      0.000000     -0.000145
      9.61700      6.78139      4.00467         0.000000     -0.000000     -0.000145
      9.61700      6.78139      9.35488        -0.000000     -0.000000     -0.000145
      2.72861      0.02675      2.68310         0.000000      0.000000      0.000145
      2.72861      0.02675      8.03331         0.000000      0.000000      0.000145
      2.78211      5.37696      2.68310         0.000000     -0.000000      0.000145
      2.78211      5.37696      8.03331         0.000000     -0.000000      0.000145
      8.18582      0.08025      2.68310        -0.000000      0.000000      0.000145
      8.18582      0.08025      8.03331        -0.000000     -0.000000      0.000145
      8.23932      5.43046      2.68310        -0.000000     -0.000000      0.000145
      8.23932      5.43046      8.03331        -0.000000      0.000000      0.000145
      1.40443      4.02603      4.00467        -0.000000      0.000000     -0.000145
      1.40443      4.02603      9.35488         0.000000      0.000000     -0.000145
      1.45793      9.37624      4.00467         0.000000      0.000000     -0.000145
      1.45793      9.37624      9.35488        -0.000000      0.000000     -0.000145
      6.86165      4.07954      4.00467         0.000000     -0.000000     -0.000145
      6.86165      4.07954      9.35488        -0.000000     -0.000000     -0.000145
      6.91515      9.42975      4.00467        -0.000000     -0.000000     -0.000145
      6.91515      9.42975      9.35488        -0.000000     -0.000000     -0.000145
      2.75536      2.70186      0.00799         0.000000      0.000000      0.000145
      2.75536      2.70186      5.35820         0.000000      0.000000      0.000145
      2.80886      8.05207      0.00799         0.000000     -0.000000      0.000145
      2.80886      8.05207      5.35820        -0.000000     -0.000000      0.000145
      8.21257      2.75536      0.00799        -0.000000      0.000000      0.000145
      8.21257      2.75536      5.35820        -0.000000      0.000000      0.000145
      8.26608      8.10557      0.00799        -0.000000     -0.000000      0.000145
      8.26608      8.10557      5.35820        -0.000000     -0.000000      0.000145
      1.37768      1.35093      1.32956         0.000000      0.000000     -0.000145
      1.37768      1.35093      6.67977        -0.000000      0.000000     -0.000145
      1.43118      6.70114      1.32956         0.000000      0.000000     -0.000145
      1.43118      6.70114      6.67977         0.000000      0.000000     -0.000145
      6.83489      1.40443      1.32956        -0.000000     -0.000000     -0.000145
      6.83489      1.40443      6.67977        -0.000000     -0.000000     -0.000145
      6.88840      6.75464      1.32956        -0.000000     -0.000000     -0.000145
      6.88840      6.75464      6.67977         0.000000     -0.000000     -0.000145
 -----------------------------------------------------------------------------------
    total drift:                                0.000000     -0.000000      0.000011


--------------------------------------------------------------------------------------------------------



  FREE ENERGIE OF THE ION-ELECTRON SYSTEM (eV)
  ---------------------------------------------------
  free  energy   TOTEN  =      -367.11812106 eV

  energy  without entropy=     -367.13706210  energy(sigma->0) =     -367.12443474
 
 d Force = 0.6365330E-02[-0.251E-04, 0.128E-01]  d Energy = 0.6387088E-02-0.218E-04
 d Force =-0.1961056E+00[-0.207E+00,-0.185E+00]  d Ewald  =-0.1961052E+00-0.444E-06


--------------------------------------------------------------------------------------------------------


    POTLOK:  cpu time      0.1477: real time      0.1482


--------------------------------------------------------------------------------------------------------




--------------------------------------------------------------------------------------------------------


  
 reached required accuracy - stopping structural energy minimisation
     LOOP+:  cpu time     13.0873: real time     13.3391
    4ORBIT:  cpu time      0.0000: real time      0.0000

 total amount of memory used by VASP MPI-rank0    79825. kBytes
=======================================================================

   base      :      30000. kBytes
   nonlr-proj:       4617. kBytes
   fftplans  :      18113. kBytes
   grid      :       6881. kBytes
   one-center:         18. kBytes
   wavefun   :      20196. kBytes
 
  
  
 General timing and accounting informations for this job:
 ========================================================
  
                  Total CPU time used (sec):       59.064
                            User time (sec):       55.856
                          System time (sec):        3.208
                         Elapsed time (sec):       62.745
  
                   Maximum memory used (kb):      408628.
                   Average memory used (kb):          N/A
  
                          Minor page faults:        94964
                          Major page faults:            0
                 Voluntary context switches:         9300
