  64  64   0   0
  0.1917308E+02  0.1077739E-08  0.1067069E-08  0.1067056E-08  0.5000000E-15
  1.000000000000000E-004
  CAR 
 Si64                                    
     11.70986790     -8.05567216  301      6.48791751      1.00000000
     -8.056  0.0000E+00  0.0000E+00
     -7.990  0.0000E+00  0.0000E+00
     -7.924  0.0000E+00  0.0000E+00
     -7.858  0.0000E+00  0.0000E+00
     -7.792  0.0000E+00  0.0000E+00
     -7.726  0.0000E+00  0.0000E+00
     -7.660 -0.1577E-28 -0.1039E-29
     -7.594 -0.2665E-26 -0.1766E-27
     -7.529 -0.3634E-24 -0.2412E-25
     -7.463 -0.3980E-22 -0.2646E-23
     -7.397 -0.3499E-20 -0.2332E-21
     -7.331 -0.2469E-18 -0.1650E-19
     -7.265 -0.1397E-16 -0.9371E-18
     -7.199 -0.6130E-15 -0.4132E-16
     -7.133 -0.2227E-13 -0.1509E-14
     -7.067 -0.6455E-12 -0.4404E-13
     -7.002 -0.1495E-10 -0.1029E-11
     -6.936 -0.2763E-09 -0.1924E-10
     -6.870 -0.4068E-08 -0.2873E-09
     -6.804 -0.4759E-07 -0.3423E-08
     -6.738 -0.4407E-06 -0.3245E-07
     -6.672 -0.3214E-05 -0.2442E-06
     -6.606 -0.1832E-04 -0.1451E-05
     -6.540 -0.8062E-04 -0.6763E-05
     -6.474 -0.2679E-03 -0.2442E-04
     -6.409 -0.6432E-03 -0.6679E-04
     -6.343 -0.9881E-03 -0.1319E-03
     -6.277 -0.4685E-03 -0.1628E-03
     -6.211  0.1977E-02 -0.3250E-04
     -6.145  0.6096E-02  0.3691E-03
     -6.079  0.9861E-02  0.1019E-02
     -6.013  0.1326E-01  0.1892E-02
     -5.947  0.2251E-01  0.3375E-02
     -5.881  0.4447E-01  0.6305E-02
     -5.816  0.7345E-01  0.1114E-01
     -5.750  0.9332E-01  0.1729E-01
     -5.684  0.1016E+00  0.2399E-01
     -5.618  0.1192E+00  0.3184E-01
     -5.552  0.1585E+00  0.4228E-01
     -5.486  0.1947E+00  0.5511E-01
     -5.420  0.1945E+00  0.6793E-01
     -5.354  0.1643E+00  0.7876E-01
     -5.288  0.1393E+00  0.8793E-01
     -5.223  0.1307E+00  0.9654E-01
     -5.157  0.1188E+00  0.1044E+00
     -5.091  0.9398E-01  0.1106E+00
     -5.025  0.7265E-01  0.1154E+00
     -4.959  0.6997E-01  0.1200E+00
     -4.893  0.8882E-01  0.1258E+00
     -4.827  0.1404E+00  0.1351E+00
     -4.761  0.2370E+00  0.1507E+00
     -4.696  0.3510E+00  0.1738E+00
     -4.630  0.4251E+00  0.2018E+00
     -4.564  0.4436E+00  0.2310E+00
     -4.498  0.4449E+00  0.2604E+00
     -4.432  0.4407E+00  0.2894E+00
     -4.366  0.3858E+00  0.3148E+00
     -4.300  0.2565E+00  0.3317E+00
     -4.234  0.1032E+00  0.3385E+00
     -4.168 -0.1318E-02  0.3384E+00
     -4.103 -0.2305E-01  0.3369E+00
     -4.037  0.3488E-01  0.3392E+00
     -3.971  0.1568E+00  0.3495E+00
     -3.905  0.3138E+00  0.3702E+00
     -3.839  0.4540E+00  0.4001E+00
     -3.773  0.5173E+00  0.4342E+00
     -3.707  0.4760E+00  0.4656E+00
     -3.641  0.3636E+00  0.4895E+00
     -3.575  0.2545E+00  0.5063E+00
     -3.510  0.2169E+00  0.5206E+00
     -3.444  0.2802E+00  0.5390E+00
     -3.378  0.4221E+00  0.5669E+00
     -3.312  0.5746E+00  0.6047E+00
     -3.246  0.6672E+00  0.6487E+00
     -3.180  0.6772E+00  0.6933E+00
     -3.114  0.6296E+00  0.7348E+00
     -3.048  0.5546E+00  0.7713E+00
     -2.983  0.4727E+00  0.8025E+00
     -2.917  0.4149E+00  0.8298E+00
     -2.851  0.4059E+00  0.8565E+00
     -2.785  0.4146E+00  0.8838E+00
     -2.719  0.3700E+00  0.9082E+00
     -2.653  0.2484E+00  0.9246E+00
     -2.587  0.1056E+00  0.9315E+00
     -2.521  0.7511E-02  0.9320E+00
     -2.455 -0.3005E-01  0.9301E+00
     -2.390 -0.2616E-01  0.9283E+00
     -2.324  0.7524E-02  0.9288E+00
     -2.258  0.7141E-01  0.9335E+00
     -2.192  0.1491E+00  0.9434E+00
     -2.126  0.1965E+00  0.9563E+00
     -2.060  0.1764E+00  0.9679E+00
     -1.994  0.1014E+00  0.9746E+00
     -1.928  0.3105E-01  0.9767E+00
     -1.862  0.3153E-01  0.9787E+00
     -1.797  0.1379E+00  0.9878E+00
     -1.731  0.3298E+00  0.1010E+01
     -1.665  0.5242E+00  0.1044E+01
     -1.599  0.6134E+00  0.1085E+01
     -1.533  0.5424E+00  0.1120E+01
     -1.467  0.3552E+00  0.1144E+01
     -1.401  0.1578E+00  0.1154E+01
     -1.335  0.4064E-01  0.1157E+01
     -1.270  0.3184E-01  0.1159E+01
     -1.204  0.9977E-01  0.1165E+01
     -1.138  0.1795E+00  0.1177E+01
     -1.072  0.2122E+00  0.1191E+01
     -1.006  0.1877E+00  0.1204E+01
     -0.940  0.1573E+00  0.1214E+01
     -0.874  0.1875E+00  0.1226E+01
     -0.808  0.2831E+00  0.1245E+01
     -0.742  0.3638E+00  0.1269E+01
     -0.677  0.3515E+00  0.1292E+01
     -0.611  0.2830E+00  0.1311E+01
     -0.545  0.2960E+00  0.1330E+01
     -0.479  0.4838E+00  0.1362E+01
     -0.413  0.7817E+00  0.1414E+01
     -0.347  0.1005E+01  0.1480E+01
     -0.281  0.9928E+00  0.1545E+01
     -0.215  0.7367E+00  0.1594E+01
     -0.149  0.3788E+00  0.1619E+01
     -0.084  0.9595E-01  0.1625E+01
     -0.018 -0.1578E-01  0.1624E+01
      0.048  0.4092E-01  0.1627E+01
      0.114  0.1992E+00  0.1640E+01
      0.180  0.3549E+00  0.1663E+01
      0.246  0.4110E+00  0.1690E+01
      0.312  0.3450E+00  0.1713E+01
      0.378  0.2216E+00  0.1728E+01
      0.444  0.1240E+00  0.1736E+01
      0.509  0.9523E-01  0.1742E+01
      0.575  0.1421E+00  0.1751E+01
      0.641  0.2536E+00  0.1768E+01
      0.707  0.3925E+00  0.1794E+01
      0.773  0.4916E+00  0.1826E+01
      0.839  0.4863E+00  0.1858E+01
      0.905  0.3674E+00  0.1883E+01
      0.971  0.1974E+00  0.1896E+01
      1.036  0.5896E-01  0.1899E+01
      1.102 -0.9416E-02  0.1899E+01
      1.168 -0.2371E-01  0.1897E+01
      1.234 -0.1848E-01  0.1896E+01
      1.300 -0.1660E-01  0.1895E+01
      1.366 -0.2349E-01  0.1893E+01
      1.432 -0.2785E-01  0.1892E+01
      1.498  0.6501E-03  0.1892E+01
      1.564  0.1008E+00  0.1898E+01
      1.629  0.2845E+00  0.1917E+01
      1.695  0.5059E+00  0.1950E+01
      1.761  0.6798E+00  0.1995E+01
      1.827  0.7369E+00  0.2044E+01
      1.893  0.6642E+00  0.2087E+01
      1.959  0.5117E+00  0.2121E+01
      2.025  0.3743E+00  0.2146E+01
      2.091  0.3322E+00  0.2168E+01
      2.157  0.3760E+00  0.2193E+01
      2.222  0.4115E+00  0.2220E+01
      2.288  0.3688E+00  0.2244E+01
      2.354  0.3004E+00  0.2264E+01
      2.420  0.3525E+00  0.2287E+01
      2.486  0.6257E+00  0.2328E+01
      2.552  0.1050E+01  0.2397E+01
      2.618  0.1395E+01  0.2489E+01
      2.684  0.1429E+01  0.2583E+01
      2.749  0.1114E+01  0.2657E+01
      2.815  0.6279E+00  0.2698E+01
      2.881  0.2099E+00  0.2712E+01
      2.947 -0.2316E-01  0.2710E+01
      3.013 -0.9721E-01  0.2704E+01
      3.079 -0.7255E-01  0.2699E+01
      3.145  0.4519E-01  0.2702E+01
      3.211  0.2861E+00  0.2721E+01
      3.277  0.6291E+00  0.2763E+01
      3.342  0.9681E+00  0.2826E+01
      3.408  0.1188E+01  0.2905E+01
      3.474  0.1253E+01  0.2987E+01
      3.540  0.1197E+01  0.3066E+01
      3.606  0.1061E+01  0.3136E+01
      3.672  0.8801E+00  0.3194E+01
      3.738  0.7125E+00  0.3241E+01
      3.804  0.6326E+00  0.3283E+01
      3.870  0.6696E+00  0.3327E+01
      3.935  0.7438E+00  0.3376E+01
      4.001  0.7193E+00  0.3423E+01
      4.067  0.5560E+00  0.3460E+01
      4.133  0.3720E+00  0.3484E+01
      4.199  0.3141E+00  0.3505E+01
      4.265  0.4007E+00  0.3531E+01
      4.331  0.5276E+00  0.3566E+01
      4.397  0.6010E+00  0.3606E+01
      4.463  0.6180E+00  0.3646E+01
      4.528  0.6232E+00  0.3687E+01
      4.594  0.6406E+00  0.3730E+01
      4.660  0.6728E+00  0.3774E+01
      4.726  0.7264E+00  0.3822E+01
      4.792  0.8016E+00  0.3875E+01
      4.858  0.8654E+00  0.3932E+01
      4.924  0.8556E+00  0.3988E+01
      4.990  0.7246E+00  0.4036E+01
      5.055  0.4911E+00  0.4068E+01
      5.121  0.2453E+00  0.4084E+01
      5.187  0.9296E-01  0.4090E+01
      5.253  0.8711E-01  0.4096E+01
      5.319  0.2006E+00  0.4109E+01
      5.385  0.3436E+00  0.4132E+01
      5.451  0.4150E+00  0.4159E+01
      5.517  0.3663E+00  0.4183E+01
      5.583  0.2316E+00  0.4199E+01
      5.648  0.9235E-01  0.4205E+01
      5.714  0.1519E-01  0.4206E+01
      5.780  0.1928E-01  0.4207E+01
      5.846  0.8224E-01  0.4212E+01
      5.912  0.1566E+00  0.4223E+01
      5.978  0.1929E+00  0.4235E+01
      6.044  0.1714E+00  0.4247E+01
      6.110  0.1160E+00  0.4254E+01
      6.176  0.6668E-01  0.4259E+01
      6.241  0.4141E-01  0.4262E+01
      6.307  0.2994E-01  0.4264E+01
      6.373  0.1896E-01  0.4265E+01
      6.439  0.1226E-01  0.4266E+01
      6.505  0.2630E-01  0.4267E+01
      6.571  0.6982E-01  0.4272E+01
      6.637  0.1284E+00  0.4280E+01
      6.703  0.1702E+00  0.4292E+01
      6.768  0.1687E+00  0.4303E+01
      6.834  0.1238E+00  0.4311E+01
      6.900  0.6074E-01  0.4315E+01
      6.966  0.1403E-01  0.4316E+01
      7.032  0.1144E-01  0.4317E+01
      7.098  0.6335E-01  0.4321E+01
      7.164  0.1520E+00  0.4331E+01
      7.230  0.2310E+00  0.4346E+01
      7.296  0.2555E+00  0.4363E+01
      7.361  0.2303E+00  0.4378E+01
      7.427  0.2183E+00  0.4392E+01
      7.493  0.2780E+00  0.4411E+01
      7.559  0.3881E+00  0.4436E+01
      7.625  0.4539E+00  0.4466E+01
      7.691  0.4048E+00  0.4493E+01
      7.757  0.2726E+00  0.4511E+01
      7.823  0.1672E+00  0.4522E+01
      7.889  0.1852E+00  0.4534E+01
      7.954  0.3422E+00  0.4557E+01
      8.020  0.5635E+00  0.4594E+01
      8.086  0.7273E+00  0.4642E+01
      8.152  0.7433E+00  0.4691E+01
      8.218  0.6238E+00  0.4732E+01
      8.284  0.4796E+00  0.4763E+01
      8.350  0.4320E+00  0.4792E+01
      8.416  0.5266E+00  0.4826E+01
      8.481  0.7295E+00  0.4874E+01
      8.547  0.9712E+00  0.4938E+01
      8.613  0.1168E+01  0.5015E+01
      8.679  0.1229E+01  0.5096E+01
      8.745  0.1102E+01  0.5169E+01
      8.811  0.8261E+00  0.5223E+01
      8.877  0.5186E+00  0.5258E+01
      8.943  0.2941E+00  0.5277E+01
      9.009  0.1964E+00  0.5290E+01
      9.074  0.2030E+00  0.5303E+01
      9.140  0.2647E+00  0.5321E+01
      9.206  0.3241E+00  0.5342E+01
      9.272  0.3284E+00  0.5364E+01
      9.338  0.2583E+00  0.5381E+01
      9.404  0.1466E+00  0.5390E+01
      9.470  0.5026E-01  0.5394E+01
      9.536  0.3514E-02  0.5394E+01
      9.602  0.1414E-02  0.5394E+01
      9.667  0.1794E-01  0.5395E+01
      9.733  0.2956E-01  0.5397E+01
      9.799  0.2724E-01  0.5399E+01
      9.865  0.1586E-01  0.5400E+01
      9.931  0.4852E-02  0.5400E+01
      9.997 -0.7510E-03  0.5400E+01
     10.063 -0.1811E-02  0.5400E+01
     10.129 -0.1142E-02  0.5400E+01
     10.195 -0.4595E-03  0.5400E+01
     10.260 -0.1339E-03  0.5400E+01
     10.326 -0.2953E-04  0.5400E+01
     10.392 -0.5042E-05  0.5400E+01
     10.458 -0.6741E-06  0.5400E+01
     10.524 -0.7111E-07  0.5400E+01
     10.590 -0.5946E-08  0.5400E+01
     10.656 -0.3955E-09  0.5400E+01
     10.722 -0.2098E-10  0.5400E+01
     10.787 -0.8891E-12  0.5400E+01
     10.853 -0.3014E-13  0.5400E+01
     10.919 -0.8285E-15  0.5400E+01
     10.985 -0.1404E-16  0.5400E+01
     11.051  0.0000E+00  0.5400E+01
     11.117  0.0000E+00  0.5400E+01
     11.183  0.0000E+00  0.5400E+01
     11.249  0.0000E+00  0.5400E+01
     11.315  0.0000E+00  0.5400E+01
     11.380  0.0000E+00  0.5400E+01
     11.446  0.0000E+00  0.5400E+01
     11.512  0.0000E+00  0.5400E+01
     11.578  0.0000E+00  0.5400E+01
     11.644  0.0000E+00  0.5400E+01
     11.710  0.0000E+00  0.5400E+01
