       N       E                     dE             d eps       ncg     rms          rms(c)
DAV:   1     0.566755529310E+03    0.56676E+03   -0.84636E+04  2592   0.107E+03
DAV:   2    -0.311297789658E+03   -0.87805E+03   -0.83155E+03  3120   0.173E+02
DAV:   3    -0.373230669124E+03   -0.61933E+02   -0.60785E+02  3136   0.410E+01
DAV:   4    -0.374772931157E+03   -0.15423E+01   -0.15314E+01  3136   0.790E+00
DAV:   5    -0.374821612908E+03   -0.48682E-01   -0.48587E-01  3106   0.130E+00    0.298E+01
RMM:   6    -0.369173533778E+03    0.56481E+01   -0.29129E+00  2592   0.268E+00    0.179E+01
RMM:   7    -0.366668423493E+03    0.25051E+01   -0.74360E+00  2659   0.427E+00    0.109E+00
RMM:   8    -0.366704269007E+03   -0.35846E-01   -0.67244E-01  2612   0.162E+00    0.516E-01
RMM:   9    -0.366725715032E+03   -0.21446E-01   -0.20178E-01  2664   0.791E-01    0.592E-01
RMM:  10    -0.366729447612E+03   -0.37326E-02   -0.36341E-02  2745   0.375E-01    0.741E-01
RMM:  11    -0.366726012268E+03    0.34353E-02   -0.11765E-02  2592   0.221E-01    0.760E-01
RMM:  12    -0.366726066193E+03   -0.53925E-04   -0.18060E-03  2608   0.101E-01    0.817E-01
RMM:  13    -0.366726161845E+03   -0.95652E-04   -0.35774E-04  2741   0.424E-02    0.859E-01
RMM:  14    -0.366725754343E+03    0.40750E-03   -0.19877E-04  2592   0.320E-02    0.729E-01
RMM:  15    -0.366726019236E+03   -0.26489E-03   -0.78239E-05  2609   0.170E-02    0.684E-01
RMM:  16    -0.366726330245E+03   -0.31101E-03   -0.10449E-04  2592   0.228E-02    0.550E-01
RMM:  17    -0.366726382300E+03   -0.52056E-04   -0.24221E-05  2593   0.115E-02    0.396E-01
RMM:  18    -0.366726407323E+03   -0.25023E-04   -0.43005E-06  2062   0.535E-03    0.294E-01
RMM:  19    -0.366726458581E+03   -0.51258E-04   -0.21509E-05  2607   0.105E-02    0.102E-01
RMM:  20    -0.366726467521E+03   -0.89395E-05   -0.91641E-06  2547   0.696E-03    0.154E-02
RMM:  21    -0.366726468846E+03   -0.13249E-05   -0.16782E-06  1575   0.293E-03    0.697E-03
RMM:  22    -0.366726469478E+03   -0.63226E-06   -0.26498E-07  1535   0.108E-03
   1 F= -.36672647E+03 E0= -.36673722E+03  d E =-.366726E+03
       N       E                     dE             d eps       ncg     rms          rms(c)
DAV:   1    -0.366736381274E+03   -0.99124E-02   -0.58128E-01  2944   0.146E+00    0.341E-01
RMM:   2    -0.366739239554E+03   -0.28583E-02   -0.29676E-02  2592   0.364E-01    0.137E-01
RMM:   3    -0.366739655210E+03   -0.41566E-03   -0.47006E-03  2640   0.163E-01    0.581E-02
RMM:   4    -0.366739650967E+03    0.42425E-05   -0.63499E-04  2654   0.674E-02    0.209E-02
RMM:   5    -0.366739655548E+03   -0.45806E-05   -0.11178E-04  2663   0.267E-02    0.443E-03
RMM:   6    -0.366739658327E+03   -0.27793E-05   -0.27779E-05  2706   0.119E-02    0.954E-04
RMM:   7    -0.366739658645E+03   -0.31813E-06   -0.32965E-06  1835   0.414E-03    0.121E-03
RMM:   8    -0.366739658702E+03   -0.56339E-07   -0.69792E-07  1486   0.184E-03
   2 F= -.36673966E+03 E0= -.36674943E+03  d E =-.131892E-01
       N       E                     dE             d eps       ncg     rms          rms(c)
DAV:   1    -0.366741970108E+03   -0.23115E-02   -0.47907E-02  2928   0.420E-01    0.975E-02
RMM:   2    -0.366742202510E+03   -0.23240E-03   -0.24007E-03  2592   0.104E-01    0.395E-02
RMM:   3    -0.366742235738E+03   -0.33228E-04   -0.37308E-04  2641   0.463E-02    0.165E-02
RMM:   4    -0.366742235575E+03    0.16343E-06   -0.50082E-05  2646   0.192E-02    0.589E-03
RMM:   5    -0.366742235983E+03   -0.40883E-06   -0.89198E-06  2358   0.759E-03    0.128E-03
RMM:   6    -0.366742236160E+03   -0.17706E-06   -0.20053E-06  1686   0.337E-03    0.259E-04
RMM:   7    -0.366742236198E+03   -0.37427E-07   -0.38879E-07  1467   0.141E-03    0.266E-04
RMM:   8    -0.366742236212E+03   -0.14447E-07   -0.10062E-07   997   0.731E-04
   3 F= -.36674224E+03 E0= -.36675242E+03  d E =-.157667E-01
