 vasp.6.4.3 19Mar24 (build Oct 21 2024 22:36:34) complex                        
  
 executed on             LinuxIFC date 2024.11.01  22:54:22
 running   96 mpi-ranks, on    1 nodes
 distrk:  each k-point on   24 cores,    4 groups
 distr:  one band on NCORE=  12 cores,    2 groups


--------------------------------------------------------------------------------------------------------


 INCAR:
   SYSTEM = Si64
   ISTART = 0
   ICHARG = 2
   LREAL = Auto
   PREC = Accurate
   LWAVE = .False.
   LCHARG = .False.
   ADDGRID = .True.
   ENCUT = 400
   GGA = PS
   GGA_COMPAT = .FALSE.
   ISMEAR = 1
   SIGMA = 0.2
   NELM = 60
   NELMIN = 8
   EDIFF = 1e-06
   EDIFFG = -0.01
   NSW = 60
   IBRION = 2
   ISIF = 2
   KPAR = 4
   NPAR = 2
   ALGO = Fast

 POTCAR:    PAW_PBE Si 05Jan2001                  
 POTCAR:    PAW_PBE Si 05Jan2001                  
   VRHFIN =Si: s2p2                                                                                 
   LEXCH  = PE                                                                                      
   EATOM  =   103.0669 eV,    7.5752 Ry                                                             
                                                                                                    
   TITEL  = PAW_PBE Si 05Jan2001                                                                    
   LULTRA =        F    use ultrasoft PP ?                                                          
   IUNSCR =        1    unscreen: 0-lin 1-nonlin 2-no                                               
   RPACOR =    1.500    partial core radius                                                         
   POMASS =   28.085; ZVAL   =    4.000    mass and valenz                                          
   RCORE  =    1.900    outmost cutoff radius                                                       
   RWIGS  =    2.480; RWIGS  =    1.312    wigner-seitz radius (au A)                               
   ENMAX  =  245.345; ENMIN  =  184.009 eV                                                          
   ICORE  =        2    local potential                                                             
   LCOR   =        T    correct aug charges                                                         
   LPAW   =        T    paw PP                                                                      
   EAUG   =  322.069                                                                                
   DEXC   =    0.000                                                                                
   RMAX   =    1.950    core radius for proj-oper                                                   
   RAUG   =    1.300    factor for augmentation sphere                                              
   RDEP   =    1.993    radius for radial grids                                                     
   RDEPT  =    1.837    core radius for aug-charge                                                  
                                                                                                    
   Atomic configuration                                                                             
    6 entries                                                                                       
     n  l   j            E        occ.                                                              
     1  0  0.50     -1785.8828   2.0000                                                             
     2  0  0.50      -139.4969   2.0000                                                             
     2  1  1.50       -95.5546   6.0000                                                             
     3  0  0.50       -10.8127   2.0000                                                             
     3  1  0.50        -4.0811   2.0000                                                             
     3  2  1.50        -4.0817   0.0000                                                             
   Description                                                                                      
     l       E           TYP  RCUT    TYP  RCUT                                                     
     0    -10.8127223     23  1.900                                                                 
     0     -7.6451159     23  1.900                                                                 
     1     -4.0811372     23  1.900                                                                 
     1      2.4879257     23  1.900                                                                 
     2     -4.0817478      7  1.900                                                                 
  local pseudopotential read in
  partial core-charges read in
  partial kinetic energy density read in
  atomic valenz-charges read in
  non local Contribution for L=           0  read in
    real space projection operators read in
  non local Contribution for L=           0  read in
    real space projection operators read in
  non local Contribution for L=           1  read in
    real space projection operators read in
  non local Contribution for L=           1  read in
    real space projection operators read in
    PAW grid and wavefunctions read in
 
   number of l-projection  operators is LMAX  =           4
   number of lm-projection operators is LMMAX =           8
 
 Optimization of the real space projectors (new method)

 maximal supplied QI-value         = 19.84
 optimisation between [QCUT,QGAM] = [ 10.12, 20.44] = [ 28.68,116.96] Ry 
 Optimized for a Real-space Cutoff    1.38 Angstroem

   l    n(q)    QCUT    max X(q) W(low)/X(q) W(high)/X(q)  e(spline) 
   0      8    10.119   159.560    0.58E-04    0.11E-03    0.54E-07
   0      8    10.119   115.863    0.56E-04    0.11E-03    0.54E-07
   1      8    10.119    88.339    0.22E-03    0.17E-03    0.19E-06
   1      8    10.119    48.592    0.22E-03    0.17E-03    0.18E-06
 -----------------------------------------------------------------------------
|                                                                             |
|               ----> ADVICE to this user running VASP <----                  |
|                                                                             |
|     You enforced a specific xc type in the INCAR file but a different       |
|     type was found in the POTCAR file.                                      |
|     I HOPE YOU KNOW WHAT YOU ARE DOING!                                     |
|                                                                             |
 -----------------------------------------------------------------------------

  PAW_PBE Si 05Jan2001                  :
 energy of atom  1       EATOM= -103.0669
 kinetic energy error for atom=    0.0012 (will be added to EATOM!!)
 
 
 POSCAR: Si8
  positions in direct lattice
  velocities in cartesian coordinates


 exchange-correlation table for PS
   RHO(1)=    0.500       N(1)  =     2000
   RHO(2)=  100.500       N(2)  =     4000
 


--------------------------------------------------------------------------------------------------------


 ion  position               nearest neighbor table
   1  0.000  0.000  0.000-  30 2.31  44 2.31  15 2.33  57 2.33
   2  0.000  0.000  0.500-  29 2.31  43 2.31  16 2.33  58 2.33
   3  0.000  0.500  0.000-  32 2.31  42 2.31  13 2.33  59 2.33
   4  0.000  0.500  0.500-  31 2.31  41 2.31  14 2.33  60 2.33
   5  0.500  0.000  0.000-  26 2.31  48 2.31  11 2.33  61 2.33
   6  0.500  0.000  0.500-  25 2.31  47 2.31  12 2.33  62 2.33
   7  0.500  0.500  0.000-  28 2.31  46 2.31   9 2.33  63 2.33
   8  0.500  0.500  0.500-  27 2.31  45 2.31  10 2.33  64 2.33
   9  0.375  0.375  0.125-  21 2.31  35 2.31   7 2.33  49 2.33
  10  0.375  0.375  0.625-  22 2.31  36 2.31   8 2.33  50 2.33
  11  0.375  0.875  0.125-  23 2.31  33 2.31   5 2.33  51 2.33
  12  0.375  0.875  0.625-  24 2.31  34 2.31   6 2.33  52 2.33
  13  0.875  0.375  0.125-  17 2.31  39 2.31   3 2.33  53 2.33
  14  0.875  0.375  0.625-  18 2.31  40 2.31   4 2.33  54 2.33
  15  0.875  0.875  0.125-  19 2.31  37 2.31   1 2.33  55 2.33
  16  0.875  0.875  0.625-  20 2.31  38 2.31   2 2.33  56 2.33
  17  0.000  0.250  0.250-  13 2.31  57 2.31  41 2.33  29 2.33
  18  0.000  0.250  0.750-  14 2.31  58 2.31  42 2.33  30 2.33
  19  0.000  0.750  0.250-  15 2.31  59 2.31  43 2.33  31 2.33
  20  0.000  0.750  0.750-  16 2.31  60 2.31  44 2.33  32 2.33
  21  0.500  0.250  0.250-   9 2.31  61 2.31  45 2.33  25 2.33
  22  0.500  0.250  0.750-  10 2.31  62 2.31  46 2.33  26 2.33
  23  0.500  0.750  0.250-  11 2.31  63 2.31  47 2.33  27 2.33
  24  0.500  0.750  0.750-  12 2.31  64 2.31  48 2.33  28 2.33
  25  0.375  0.125  0.375-   6 2.31  50 2.31  33 2.33  21 2.33
  26  0.375  0.125  0.875-   5 2.31  49 2.31  34 2.33  22 2.33
  27  0.375  0.625  0.375-   8 2.31  52 2.31  35 2.33  23 2.33
  28  0.375  0.625  0.875-   7 2.31  51 2.31  36 2.33  24 2.33
  29  0.875  0.125  0.375-   2 2.31  54 2.31  37 2.33  17 2.33
  30  0.875  0.125  0.875-   1 2.31  53 2.31  38 2.33  18 2.33
  31  0.875  0.625  0.375-   4 2.31  56 2.31  39 2.33  19 2.33
  32  0.875  0.625  0.875-   3 2.31  55 2.31  40 2.33  20 2.33
  33  0.250  0.000  0.250-  11 2.31  57 2.31  43 2.33  25 2.33
  34  0.250  0.000  0.750-  12 2.31  58 2.31  44 2.33  26 2.33
  35  0.250  0.500  0.250-   9 2.31  59 2.31  41 2.33  27 2.33
  36  0.250  0.500  0.750-  10 2.31  60 2.31  42 2.33  28 2.33
  37  0.750  0.000  0.250-  15 2.31  61 2.31  47 2.33  29 2.33
  38  0.750  0.000  0.750-  16 2.31  62 2.31  48 2.33  30 2.33
  39  0.750  0.500  0.250-  13 2.31  63 2.31  45 2.33  31 2.33
  40  0.750  0.500  0.750-  14 2.31  64 2.31  46 2.33  32 2.33
  41  0.125  0.375  0.375-   4 2.31  50 2.31  35 2.33  17 2.33
  42  0.125  0.375  0.875-   3 2.31  49 2.31  36 2.33  18 2.33
  43  0.125  0.875  0.375-   2 2.31  52 2.31  33 2.33  19 2.33
  44  0.125  0.875  0.875-   1 2.31  51 2.31  34 2.33  20 2.33
  45  0.625  0.375  0.375-   8 2.31  54 2.31  39 2.33  21 2.33
  46  0.625  0.375  0.875-   7 2.31  53 2.31  40 2.33  22 2.33
  47  0.625  0.875  0.375-   6 2.31  56 2.31  37 2.33  23 2.33
  48  0.625  0.875  0.875-   5 2.31  55 2.31  38 2.33  24 2.33
  49  0.250  0.250  0.000-  26 2.31  42 2.31   9 2.33  57 2.33
  50  0.250  0.250  0.500-  25 2.31  41 2.31  10 2.33  58 2.33
  51  0.250  0.750  0.000-  28 2.31  44 2.31  11 2.33  59 2.33
  52  0.250  0.750  0.500-  27 2.31  43 2.31  12 2.33  60 2.33
  53  0.750  0.250  0.000-  30 2.31  46 2.31  13 2.33  61 2.33
  54  0.750  0.250  0.500-  29 2.31  45 2.31  14 2.33  62 2.33
  55  0.750  0.750  0.000-  32 2.31  48 2.31  15 2.33  63 2.33
  56  0.750  0.750  0.500-  31 2.31  47 2.31  16 2.33  64 2.33
  57  0.125  0.125  0.125-  17 2.31  33 2.31   1 2.33  49 2.33
  58  0.125  0.125  0.625-  18 2.31  34 2.31   2 2.33  50 2.33
  59  0.125  0.625  0.125-  19 2.31  35 2.31   3 2.33  51 2.33
  60  0.125  0.625  0.625-  20 2.31  36 2.31   4 2.33  52 2.33
  61  0.625  0.125  0.125-  21 2.31  37 2.31   5 2.33  53 2.33
  62  0.625  0.125  0.625-  22 2.31  38 2.31   6 2.33  54 2.33
  63  0.625  0.625  0.125-  23 2.31  39 2.31   7 2.33  55 2.33
  64  0.625  0.625  0.625-  24 2.31  40 2.31   8 2.33  56 2.33
 
  LATTYP: Found a simple monoclinic cell.
 ALAT       =    10.6706899581
 B/A-ratio  =     0.9999875001
 C/A-ratio  =     1.0099997934
 COS(beta)  =    -0.0099502905
  
  Lattice vectors:
  
 A1 = (   0.0533530079,  10.6705565758,   0.0000000000)
 A2 = (   0.0000000000,   0.0000000000, -10.6705565758)
 A3 = ( -10.7772625916,  -0.0533530079,   0.0000000000)


Analysis of symmetry for initial positions (statically):
=====================================================================
 Subroutine PRICEL returns following result:
 
  LATTYP: Found a base centered monoclinic cell.
 ALAT       =     5.3353449790
 B/A-ratio  =     0.9999875001
 C/A-ratio  =     0.7071067812
 COS(beta)  =    -0.7000005056
  
  Lattice vectors:
  
 A1 = (   0.0133382520,   2.6676391440,  -2.6676391440)
 A2 = (   0.0133382520,   2.6676391440,   2.6676391440)
 A3 = (   2.6809773959,  -2.6543008920,   0.0000000000)
 
  32 primitive cells build up your supercell.
 

 Routine SETGRP: Setting up the symmetry group for a 
 simple monoclinic supercell.


 Subroutine GETGRP returns: Found  4 space group operations
 (whereof  2 operations were pure point group operations)
 out of a pool of  4 trial point group operations.


The static configuration has the point symmetry C_2 .
 The point group associated with its full space group is C_2h.


Analysis of symmetry for dynamics (positions and initial velocities):
=====================================================================
 Subroutine PRICEL returns following result:
 
  LATTYP: Found a base centered monoclinic cell.
 ALAT       =     5.3353449790
 B/A-ratio  =     0.9999875001
 C/A-ratio  =     0.7071067812
 COS(beta)  =    -0.7000005056
  
  Lattice vectors:
  
 A1 = (   0.0133382520,   2.6676391440,  -2.6676391440)
 A2 = (   0.0133382520,   2.6676391440,   2.6676391440)
 A3 = (   2.6809773959,  -2.6543008920,   0.0000000000)
 
  32 primitive cells build up your supercell.
 

 Routine SETGRP: Setting up the symmetry group for a 
 simple monoclinic supercell.


 Subroutine GETGRP returns: Found  4 space group operations
 (whereof  2 operations were pure point group operations)
 out of a pool of  4 trial point group operations.


The dynamic configuration has the point symmetry C_2 .
 The point group associated with its full space group is C_2h.


 Subroutine INISYM returns: Found  4 space group operations
 (whereof  2 operations are pure point group operations),
 and found    32 'primitive' translations


----------------------------------------------------------------------------------------

                                     Primitive cell                                     

  volume of cell :      38.3462

  direct lattice vectors                    reciprocal lattice vectors
     0.013338252  2.667639144 -2.667639144     0.184652568  0.186508381 -0.187431648
     0.013338252  2.667639144  2.667639144     0.184652568  0.186508381  0.187431648
     2.680977396 -2.654300892  0.000000000     0.371160949 -0.001855813 -0.000000000

  length of vectors
     3.772635036  3.772635036  3.772658615     0.322509798  0.322509798  0.371165589

  position of ions in fractional coordinates (direct lattice)
     0.000000000  0.000000000  0.000000000
     0.250000000  0.750000000  0.500000000

  ion indices of the primitive-cell ions
   primitive index   ion index
                 1           1
                 2          15

----------------------------------------------------------------------------------------

 
 
 KPOINTS: Automatic mesh                          

Automatic generation of k-mesh.
 Grid dimensions read from file:
 generate k-points for:    2    2    2

 Generating k-lattice:

  Cartesian coordinates                     Fractional coordinates (reciprocal lattice)
     0.046395119 -0.000231977  0.000000000     0.500000000  0.000000000  0.000000000
    -0.000231977  0.046859072  0.000000000     0.000000000  0.500000000  0.000000000
     0.000000000  0.000000000  0.046857912     0.000000000  0.000000000  0.500000000

  Length of vectors
     0.046395699  0.046859646  0.046857912

  Shift w.r.t. Gamma in fractional coordinates (k-lattice)
     0.000000000  0.000000000  0.000000000

 
 Subroutine IBZKPT returns following result:
 ===========================================
 
 Found      8 irreducible k-points:
 
 Following reciprocal coordinates:
            Coordinates               Weight
  0.000000  0.000000  0.000000      1.000000
  0.500000 -0.000000  0.000000      1.000000
 -0.000000  0.500000  0.000000      1.000000
  0.500000  0.500000  0.000000      1.000000
  0.000000  0.000000  0.500000      1.000000
  0.500000 -0.000000  0.500000      1.000000
 -0.000000  0.500000  0.500000      1.000000
  0.500000  0.500000  0.500000      1.000000
 
 Following cartesian coordinates:
            Coordinates               Weight
  0.000000  0.000000  0.000000      1.000000
  0.046395 -0.000232  0.000000      1.000000
 -0.000232  0.046859  0.000000      1.000000
  0.046163  0.046627  0.000000      1.000000
  0.000000  0.000000  0.046858      1.000000
  0.046395 -0.000232  0.046858      1.000000
 -0.000232  0.046859  0.046858      1.000000
  0.046163  0.046627  0.046858      1.000000
 


--------------------------------------------------------------------------------------------------------




 Dimension of arrays:
   k-points           NKPTS =      8   k-points in BZ     NKDIM =      8   number of bands    NBANDS=    162
   number of dos      NEDOS =    301   number of ions     NIONS =     64
   non local maximal  LDIM  =      4   non local SUM 2l+1 LMDIM =      8
   total plane-waves  NPLWV = 343000
   max r-space proj   IRMAX =   3130   max aug-charges    IRDMAX=  74958
   dimension x,y,z NGX =    70 NGY =   70 NGZ =   70
   dimension x,y,z NGXF=   140 NGYF=  140 NGZF=  140
   support grid    NGXF=   280 NGYF=  280 NGZF=  280
   ions per type =              64
   NGX,Y,Z   is equivalent  to a cutoff of  10.80, 10.91, 10.91 a.u.
   NGXF,Y,Z  is equivalent  to a cutoff of  21.60, 21.81, 21.81 a.u.

 SYSTEM =  Si64                                    
 POSCAR =  Si8                                     

 Startparameter for this run:
   NWRITE =      2    write-flag & timer
   PREC   = accura    normal or accurate (medium, high low for compatibility)
   ISTART =      0    job   : 0-new  1-cont  2-samecut
   ICHARG =      2    charge: 1-file 2-atom 10-const
   ISPIN  =      1    spin polarized calculation?
   LNONCOLLINEAR =      F non collinear calculations
   LSORBIT =      F    spin-orbit coupling
   INIWAV =      1    electr: 0-lowe 1-rand  2-diag
   LASPH  =      F    aspherical Exc in radial PAW
 Electronic Relaxation 1
   ENCUT  =  400.0 eV  29.40 Ry    5.42 a.u.  17.58 17.40 17.40*2*pi/ulx,y,z
   ENINI  =  400.0     initial cutoff
   ENAUG  =  322.1 eV  augmentation charge cutoff
   NELM   =     60;   NELMIN=  8; NELMDL= -5     # of ELM steps 
   EDIFF  = 0.1E-05   stopping-criterion for ELM
   LREAL  =      T    real-space projection
   NLSPLINE    = F    spline interpolate recip. space projectors
   LCOMPAT=      F    compatible to vasp.4.4
   GGA_COMPAT  = F    GGA compatible to vasp.4.4-vasp.4.6
   LMAXPAW     = -100 max onsite density
   LMAXMIX     =    2 max onsite mixed and CHGCAR
   VOSKOWN=      0    Vosko Wilk Nusair interpolation
   ROPT   =   -0.00025
 Ionic relaxation
   EDIFFG = -.1E-01   stopping-criterion for IOM
   NSW    =     60    number of steps for IOM
   NBLOCK =      1;   KBLOCK =     60    inner block; outer block 
   IBRION =      2    ionic relax: 0-MD 1-quasi-New 2-CG
   NFREE  =      1    steps in history (QN), initial steepest desc. (CG)
   ISIF   =      2    stress and relaxation
   IWAVPR =     11    prediction:  0-non 1-charg 2-wave 3-comb
   ISYM   =      2    0-nonsym 1-usesym 2-fastsym
   LCORR  =      T    Harris-Foulkes like correction to forces

   POTIM  = 0.5000    time-step for ionic-motion
   TEIN   =    0.0    initial temperature
   TEBEG  =    0.0;   TEEND  =   0.0 temperature during run
   SMASS  =  -3.00    Nose mass-parameter (am)
   estimated Nose-frequenzy (Omega)   =  0.10E-29 period in steps = 0.13E+47 mass=  -0.265E-26a.u.
   SCALEE = 1.0000    scale energy and forces
   NPACO  =    256;   APACO  = 10.0  distance and # of slots for P.C.
   PSTRESS=    0.0 pullay stress

  Mass of Ions in am
   POMASS =  28.09
  Ionic Valenz
   ZVAL   =   4.00
  Atomic Wigner-Seitz radii
   RWIGS  =  -1.00
  virtual crystal weights 
   VCA    =   1.00
   NELECT =     256.0000    total number of electrons
   NUPDOWN=      -1.0000    fix difference up-down

 DOS related values:
   EMIN   =  10.00;   EMAX   =-10.00  energy-range for DOS
   EFERMI =   0.00;   METHOD = LEGACY      
   ISMEAR =     1;   SIGMA  =   0.20  broadening in eV -4-tet -1-fermi 0-gaus

 Electronic relaxation 2 (details)
   IALGO  =     68    algorithm
   LDIAG  =      T    sub-space diagonalisation (order eigenvalues)
   LSUBROT=      F    optimize rotation matrix (better conditioning)
   TURBO    =      0    0=normal 1=particle mesh
   IRESTART =      0    0=no restart 2=restart with 2 vectors
   NREBOOT  =      0    no. of reboots
   NMIN     =      0    reboot dimension
   EREF     =   0.00    reference energy to select bands
   IMIX   =      4    mixing-type and parameters
     AMIX     =   0.40;   BMIX     =  1.00
     AMIX_MAG =   1.60;   BMIX_MAG =  1.00
     AMIN     =   0.10
     WC   =   100.;   INIMIX=   1;  MIXPRE=   1;  MAXMIX= -45

 Intra band minimization:
   WEIMIN = 0.0010     energy-eigenvalue tresh-hold
   EBREAK =  0.15E-08  absolut break condition
   DEPER  =   0.30     relativ break condition  

   TIME   =   0.40     timestep for ELM

  volume/ion in A,a.u.               =      19.17       129.39
  Fermi-wavevector in a.u.,A,eV,Ry     =   0.970951  1.834832 12.826849  0.942747
  Thomas-Fermi vector in A             =   2.101129
 
 Write flags
   LWAVE        =      F    write WAVECAR
   LDOWNSAMPLE  =      F    k-point downsampling of WAVECAR
   LCHARG       =      F    write CHGCAR
   LVTOT        =      F    write LOCPOT, total local potential
   LVHAR        =      F    write LOCPOT, Hartree potential only
   WRT_POTENTIAL= false  ! write potential to hdf5 file
   LELF         =      F    write electronic localiz. function (ELF)
   LORBIT       =      0    0 simple, 1 ext, 2 COOP (PROOUT), +10 PAW based schemes


 Dipole corrections
   LMONO      =      F    monopole corrections only (constant potential shift)
   LDIPOL     =      F    correct potential (dipole corrections)
   IDIPOL     =      0    1-x, 2-y, 3-z, 4-all directions 
   EPSILON    =  1.0000000 bulk dielectric constant
   LVACPOTAV  =      F  vacuum potentials using an averaging scheme for the charge density
   VACPOTFLAT =  0.1000000 required flatness to determine vacuum potential
 Exchange correlation treatment:
   GGA     = PS    functional components
   XC_C    = 1    coefficients multiplying the functional components
   LIBXC   =     F    Libxc                    
   VOSKOWN =     0    Vosko Wilk Nusair interpolation
   LHFCALC =     F    Hartree Fock is set to
   LHFONE  =     F    Hartree Fock one center treatment
   AEXX    =    0.0000 exact exchange contribution

 Parameters of functionals:
   PS:
     No parameter
 
 Van der Waals corrections
   IVDW    =     0    specifies the selected vdW correction

 Linear response parameters
   LEPSILON=     F    determine dielectric tensor
   LRPA    =     F    only Hartree local field effects (RPA)
   LNABLA  =     F    use nabla operator in PAW spheres
   LVEL    =     F    velocity operator in full k-point grid
   CSHIFT  =0.1000    complex shift for real part using Kramers Kronig
   OMEGAMAX=  -1.0    maximum frequency
   DEG_THRESHOLD= 0.2000000E-02 threshold for treating states as degnerate
   RTIME   =   -0.100 relaxation time in fs
  (WPLASMAI=    0.000 imaginary part of plasma frequency in eV, 0.658/RTIME)
   DFIELD  = 0.0000000 0.0000000 0.0000000 field for delta impulse in time
 
  Optional k-point grid parameters
   LKPOINTS_OPT  =     F    use optional k-point grid
   KPOINTS_OPT_MODE=     1    mode for optional k-point grid
 
 Orbital magnetization related:
   ORBITALMAG=     F  switch on orbital magnetization
   LCHIMAG   =     F  perturbation theory with respect to B field
   DQ        =  0.001000  dq finite difference perturbation B field
   LLRAUG    =     F  two centre corrections for induced B field
   LBONE     =     F  B-component reconstruction in AE one-centre
   LVGVCALC  =     T  calculate vGv susceptibility
   LVGVAPPL  =     F  apply vGv susceptibility instead of pGv for G=0

 Random number generation:
   RANDOM_GENERATOR = DEFAULT
   PCG_SEED         = not used


--------------------------------------------------------------------------------------------------------


 conjugate gradient relaxation of ions
 charge density and potential will be updated during run
 non-spin polarized calculation
 RMM-DIIS sequential band-by-band and
  variant of blocked Davidson during initial phase
 perform sub-space diagonalisation
    before iterative eigenvector-optimisation
 modified Broyden-mixing scheme, WC =      100.0
 initial mixing is a Kerker type mixing with AMIX =  0.4000 and BMIX =      1.0000
 Hartree-type preconditioning will be used
 using additional bands           34
 real space projection scheme for non local part
 use partial core corrections
 calculate Harris-corrections to forces 
   (improved forces if not selfconsistent)
 use gradient corrections 
 use of overlap-Matrix (Vanderbilt PP)
 Methfessel and Paxton  Order N= 1 SIGMA  =   0.20


--------------------------------------------------------------------------------------------------------


  energy-cutoff  :      400.00
  volume of cell :     1227.08
      direct lattice vectors                 reciprocal lattice vectors
    10.777262592  0.053353008  0.000000000     0.092790237 -0.000463953  0.000000000
     0.053353008 10.670556576  0.000000000    -0.000463953  0.093718144  0.000000000
     0.000000000  0.000000000 10.670556576     0.000000000  0.000000000  0.093715824

  length of vectors
    10.777394653 10.670689958 10.670556576     0.092791397  0.093719292  0.093715824


 
 k-points in units of 2pi/SCALE and weight: Automatic mesh                          
   0.00000000  0.00000000  0.00000000       0.125
   0.04639513 -0.00023198  0.00000000       0.125
  -0.00023198  0.04685908  0.00000000       0.125
   0.04616315  0.04662710  0.00000000       0.125
   0.00000000  0.00000000  0.04685792       0.125
   0.04639513 -0.00023198  0.04685792       0.125
  -0.00023198  0.04685908  0.04685792       0.125
   0.04616315  0.04662710  0.04685792       0.125
 
 k-points in reciprocal lattice and weights: Automatic mesh                          
   0.00000000  0.00000000  0.00000000       0.125
   0.50000000 -0.00000000  0.00000000       0.125
  -0.00000000  0.50000000  0.00000000       0.125
   0.50000000  0.50000000  0.00000000       0.125
   0.00000000  0.00000000  0.50000000       0.125
   0.50000000 -0.00000000  0.50000000       0.125
  -0.00000000  0.50000000  0.50000000       0.125
   0.50000000  0.50000000  0.50000000       0.125
 
 position of ions in fractional coordinates (direct lattice) 
   0.00000000  0.00000000  0.00000000
   0.00000000  0.00000000  0.50000000
   0.00000000  0.50000000  0.00000000
   0.00000000  0.50000000  0.50000000
   0.50000000  0.00000000  0.00000000
   0.50000000  0.00000000  0.50000000
   0.50000000  0.50000000  0.00000000
   0.50000000  0.50000000  0.50000000
   0.37500000  0.37500000  0.12500000
   0.37500000  0.37500000  0.62500000
   0.37500000  0.87500000  0.12500000
   0.37500000  0.87500000  0.62500000
   0.87500000  0.37500000  0.12500000
   0.87500000  0.37500000  0.62500000
   0.87500000  0.87500000  0.12500000
   0.87500000  0.87500000  0.62500000
   0.00000000  0.25000000  0.25000000
   0.00000000  0.25000000  0.75000000
   0.00000000  0.75000000  0.25000000
   0.00000000  0.75000000  0.75000000
   0.50000000  0.25000000  0.25000000
   0.50000000  0.25000000  0.75000000
   0.50000000  0.75000000  0.25000000
   0.50000000  0.75000000  0.75000000
   0.37500000  0.12500000  0.37500000
   0.37500000  0.12500000  0.87500000
   0.37500000  0.62500000  0.37500000
   0.37500000  0.62500000  0.87500000
   0.87500000  0.12500000  0.37500000
   0.87500000  0.12500000  0.87500000
   0.87500000  0.62500000  0.37500000
   0.87500000  0.62500000  0.87500000
   0.25000000  0.00000000  0.25000000
   0.25000000  0.00000000  0.75000000
   0.25000000  0.50000000  0.25000000
   0.25000000  0.50000000  0.75000000
   0.75000000  0.00000000  0.25000000
   0.75000000  0.00000000  0.75000000
   0.75000000  0.50000000  0.25000000
   0.75000000  0.50000000  0.75000000
   0.12500000  0.37500000  0.37500000
   0.12500000  0.37500000  0.87500000
   0.12500000  0.87500000  0.37500000
   0.12500000  0.87500000  0.87500000
   0.62500000  0.37500000  0.37500000
   0.62500000  0.37500000  0.87500000
   0.62500000  0.87500000  0.37500000
   0.62500000  0.87500000  0.87500000
   0.25000000  0.25000000  0.00000000
   0.25000000  0.25000000  0.50000000
   0.25000000  0.75000000  0.00000000
   0.25000000  0.75000000  0.50000000
   0.75000000  0.25000000  0.00000000
   0.75000000  0.25000000  0.50000000
   0.75000000  0.75000000  0.00000000
   0.75000000  0.75000000  0.50000000
   0.12500000  0.12500000  0.12500000
   0.12500000  0.12500000  0.62500000
   0.12500000  0.62500000  0.12500000
   0.12500000  0.62500000  0.62500000
   0.62500000  0.12500000  0.12500000
   0.62500000  0.12500000  0.62500000
   0.62500000  0.62500000  0.12500000
   0.62500000  0.62500000  0.62500000
 
 position of ions in cartesian coordinates  (Angst):
   0.00000000  0.00000000  0.00000000
   0.00000000  0.00000000  5.33527829
   0.02667650  5.33527829  0.00000000
   0.02667650  5.33527829  5.33527829
   5.38863130  0.02667650  0.00000000
   5.38863130  0.02667650  5.33527829
   5.41530780  5.36195479  0.00000000
   5.41530780  5.36195479  5.33527829
   4.06148085  4.02146609  1.33381957
   4.06148085  4.02146609  6.66909786
   4.08815735  9.35674438  1.33381957
   4.08815735  9.35674438  6.66909786
   9.45011215  4.04814260  1.33381957
   9.45011215  4.04814260  6.66909786
   9.47678865  9.38342089  1.33381957
   9.47678865  9.38342089  6.66909786
   0.01333825  2.66763914  2.66763914
   0.01333825  2.66763914  8.00291743
   0.04001476  8.00291743  2.66763914
   0.04001476  8.00291743  8.00291743
   5.40196955  2.69431565  2.66763914
   5.40196955  2.69431565  8.00291743
   5.42864605  8.02959394  2.66763914
   5.42864605  8.02959394  8.00291743
   4.04814260  1.35382695  4.00145872
   4.04814260  1.35382695  9.33673700
   4.07481910  6.68910524  4.00145872
   4.07481910  6.68910524  9.33673700
   9.43677389  1.38050345  4.00145872
   9.43677389  1.38050345  9.33673700
   9.46345040  6.71578174  4.00145872
   9.46345040  6.71578174  9.33673700
   2.69431565  0.01333825  2.66763914
   2.69431565  0.01333825  8.00291743
   2.72099215  5.34861654  2.66763914
   2.72099215  5.34861654  8.00291743
   8.08294694  0.04001476  2.66763914
   8.08294694  0.04001476  8.00291743
   8.10962345  5.37529304  2.66763914
   8.10962345  5.37529304  8.00291743
   1.36716520  4.00812784  4.00145872
   1.36716520  4.00812784  9.33673700
   1.39384171  9.34340613  4.00145872
   1.39384171  9.34340613  9.33673700
   6.75579650  4.03480435  4.00145872
   6.75579650  4.03480435  9.33673700
   6.78247300  9.37008263  4.00145872
   6.78247300  9.37008263  9.33673700
   2.70765390  2.68097740  0.00000000
   2.70765390  2.68097740  5.33527829
   2.73433040  8.01625568  0.00000000
   2.73433040  8.01625568  5.33527829
   8.09628520  2.70765390  0.00000000
   8.09628520  2.70765390  5.33527829
   8.12296170  8.04293219  0.00000000
   8.12296170  8.04293219  5.33527829
   1.35382695  1.34048870  1.33381957
   1.35382695  1.34048870  6.66909786
   1.38050345  6.67576699  1.33381957
   1.38050345  6.67576699  6.66909786
   6.74245825  1.36716520  1.33381957
   6.74245825  1.36716520  6.66909786
   6.76913475  6.70244349  1.33381957
   6.76913475  6.70244349  6.66909786
 


--------------------------------------------------------------------------------------------------------


 k-point     1 :   0.0000 0.0000 0.0000  plane waves:   22313
 k-point     2 :   0.5000-0.0000 0.0000  plane waves:   22304
 k-point     3 :  -0.0000 0.5000 0.0000  plane waves:   22306
 k-point     4 :   0.5000 0.5000 0.0000  plane waves:   22260
 k-point     5 :   0.0000 0.0000 0.5000  plane waves:   22306
 k-point     6 :   0.5000-0.0000 0.5000  plane waves:   22292
 k-point     7 :  -0.0000 0.5000 0.5000  plane waves:   22276
 k-point     8 :   0.5000 0.5000 0.5000  plane waves:   22284

 maximum and minimum number of plane-waves per node :      1878     1831

 maximum number of plane-waves:     22313
 maximum index in each direction: 
   IXMAX=   17   IYMAX=   17   IZMAX=   17
   IXMIN=  -18   IYMIN=  -17   IZMIN=  -17


 real space projection operators:
  total allocation   :      11980.50 KBytes
  max/ min on nodes  :       1037.50        862.75


 parallel 3D FFT for wavefunctions:
    minimum data exchange during FFTs selected (reduces bandwidth)
 parallel 3D FFT for charge:
    minimum data exchange during FFTs selected (reduces bandwidth)


 total amount of memory used by VASP MPI-rank0    79426. kBytes
=======================================================================

   base      :      30000. kBytes
   nonlr-proj:       4629. kBytes
   fftplans  :      17992. kBytes
   grid      :       6881. kBytes
   one-center:         18. kBytes
   wavefun   :      19906. kBytes
 
     INWAV:  cpu time      0.0000: real time      0.0000
 Broyden mixing: mesh for mixing (old mesh)
   NGX = 35   NGY = 35   NGZ = 35
  (NGX  =140   NGY  =140   NGZ  =140)
  gives a total of  42875 points

 initial charge density was supplied:
 charge density of overlapping atoms calculated
 number of electron     256.0000000 magnetization 
 keeping initial charge density in first step


--------------------------------------------------------------------------------------------------------


 Maximum index for non-local projection operator          276
 Maximum index for augmentation-charges         3673 (set IRDMAX)


--------------------------------------------------------------------------------------------------------


 First call to EWALD:  gamma=   0.166
 Maximum number of real-space cells 3x 3x 3
 Maximum number of reciprocal cells 3x 3x 3

    FEWALD:  cpu time      0.0033: real time      0.0034


--------------------------------------- Ionic step        1  -------------------------------------------




--------------------------------------- Iteration      1(   1)  ---------------------------------------


    POTLOK:  cpu time      0.0813: real time      0.0855
    SETDIJ:  cpu time      0.0813: real time      0.0818
     EDDAV:  cpu time      1.3198: real time      1.3888
       DOS:  cpu time      0.0030: real time      0.0031
    --------------------------------------------
      LOOP:  cpu time      1.4855: real time      1.5592

 eigenvalue-minimisations  :  2592
 total energy-change (2. order) : 0.5667555E+03  (-0.8463604E+04)
 number of electron     256.0000000 magnetization 
 augmentation part      256.0000000 magnetization 

 Free energy of the ion-electron system (eV)
  ---------------------------------------------------
  alpha Z        PSCENC =       112.36798480
  Ewald energy   TEWEN  =     -7419.27296937
  -Hartree energ DENC   =      -331.76551493
  -exchange      EXHF   =         0.00000000
  -V(xc)+E(xc)   XCENC  =      -553.48327991
  PAW double counting   =      5598.62625415    -4492.17844134
  entropy T*S    EENTRO =        -0.00527775
  eigenvalues    EBANDS =      1087.67091267
  atomic energy  EATOM  =      6564.79586099
  Solvation  Ediel_sol  =         0.00000000
  ---------------------------------------------------
  free energy    TOTEN  =       566.75552931 eV

  energy without entropy =      566.76080706  energy(sigma->0) =      566.75728856


--------------------------------------------------------------------------------------------------------




--------------------------------------- Iteration      1(   2)  ---------------------------------------


     EDDAV:  cpu time      1.3559: real time      1.3655
       DOS:  cpu time      0.0014: real time      0.0014
    --------------------------------------------
      LOOP:  cpu time      1.3574: real time      1.3670

 eigenvalue-minimisations  :  3120
 total energy-change (2. order) :-0.8780533E+03  (-0.8315544E+03)
 number of electron     256.0000000 magnetization 
 augmentation part      256.0000000 magnetization 

 Free energy of the ion-electron system (eV)
  ---------------------------------------------------
  alpha Z        PSCENC =       112.36798480
  Ewald energy   TEWEN  =     -7419.27296937
  -Hartree energ DENC   =      -331.76551493
  -exchange      EXHF   =         0.00000000
  -V(xc)+E(xc)   XCENC  =      -553.48327991
  PAW double counting   =      5598.62625415    -4492.17844134
  entropy T*S    EENTRO =         0.01942647
  eigenvalues    EBANDS =       209.59288948
  atomic energy  EATOM  =      6564.79586099
  Solvation  Ediel_sol  =         0.00000000
  ---------------------------------------------------
  free energy    TOTEN  =      -311.29778966 eV

  energy without entropy =     -311.31721613  energy(sigma->0) =     -311.30426515


--------------------------------------------------------------------------------------------------------




--------------------------------------- Iteration      1(   3)  ---------------------------------------


     EDDAV:  cpu time      1.3547: real time      1.3721
       DOS:  cpu time      0.0017: real time      0.0017
    --------------------------------------------
      LOOP:  cpu time      1.3564: real time      1.3738

 eigenvalue-minimisations  :  3136
 total energy-change (2. order) :-0.6193288E+02  (-0.6078478E+02)
 number of electron     256.0000000 magnetization 
 augmentation part      256.0000000 magnetization 

 Free energy of the ion-electron system (eV)
  ---------------------------------------------------
  alpha Z        PSCENC =       112.36798480
  Ewald energy   TEWEN  =     -7419.27296937
  -Hartree energ DENC   =      -331.76551493
  -exchange      EXHF   =         0.00000000
  -V(xc)+E(xc)   XCENC  =      -553.48327991
  PAW double counting   =      5598.62625415    -4492.17844134
  entropy T*S    EENTRO =         0.00788081
  eigenvalues    EBANDS =       147.67155568
  atomic energy  EATOM  =      6564.79586099
  Solvation  Ediel_sol  =         0.00000000
  ---------------------------------------------------
  free energy    TOTEN  =      -373.23066912 eV

  energy without entropy =     -373.23854993  energy(sigma->0) =     -373.23329606


--------------------------------------------------------------------------------------------------------




--------------------------------------- Iteration      1(   4)  ---------------------------------------


     EDDAV:  cpu time      1.3171: real time      1.3666
       DOS:  cpu time      0.0014: real time      0.0015
    --------------------------------------------
      LOOP:  cpu time      1.3186: real time      1.3681

 eigenvalue-minimisations  :  3136
 total energy-change (2. order) :-0.1542262E+01  (-0.1531394E+01)
 number of electron     256.0000000 magnetization 
 augmentation part      256.0000000 magnetization 

 Free energy of the ion-electron system (eV)
  ---------------------------------------------------
  alpha Z        PSCENC =       112.36798480
  Ewald energy   TEWEN  =     -7419.27296937
  -Hartree energ DENC   =      -331.76551493
  -exchange      EXHF   =         0.00000000
  -V(xc)+E(xc)   XCENC  =      -553.48327991
  PAW double counting   =      5598.62625415    -4492.17844134
  entropy T*S    EENTRO =         0.00816356
  eigenvalues    EBANDS =       146.12901090
  atomic energy  EATOM  =      6564.79586099
  Solvation  Ediel_sol  =         0.00000000
  ---------------------------------------------------
  free energy    TOTEN  =      -374.77293116 eV

  energy without entropy =     -374.78109471  energy(sigma->0) =     -374.77565234


--------------------------------------------------------------------------------------------------------




--------------------------------------- Iteration      1(   5)  ---------------------------------------


     EDDAV:  cpu time      1.3298: real time      1.3509
       DOS:  cpu time      0.0012: real time      0.0012
    CHARGE:  cpu time      0.2417: real time      0.2452
    MIXING:  cpu time      0.0128: real time      0.0129
    --------------------------------------------
      LOOP:  cpu time      1.5855: real time      1.6102

 eigenvalue-minimisations  :  3106
 total energy-change (2. order) :-0.4868175E-01  (-0.4858720E-01)
 number of electron     256.0000001 magnetization 
 augmentation part      -15.0644111 magnetization 

 Broyden mixing:
  rms(total) = 0.29752E+01    rms(broyden)= 0.29752E+01
  rms(prec ) = 0.32754E+01
  weight for this iteration     100.00

 Free energy of the ion-electron system (eV)
  ---------------------------------------------------
  alpha Z        PSCENC =       112.36798480
  Ewald energy   TEWEN  =     -7419.27296937
  -Hartree energ DENC   =      -331.76551493
  -exchange      EXHF   =         0.00000000
  -V(xc)+E(xc)   XCENC  =      -553.48327991
  PAW double counting   =      5598.62625415    -4492.17844134
  entropy T*S    EENTRO =         0.00813183
  eigenvalues    EBANDS =       146.08036087
  atomic energy  EATOM  =      6564.79586099
  Solvation  Ediel_sol  =         0.00000000
  ---------------------------------------------------
  free energy    TOTEN  =      -374.82161291 eV

  energy without entropy =     -374.82974474  energy(sigma->0) =     -374.82432352


--------------------------------------------------------------------------------------------------------




--------------------------------------- Iteration      1(   6)  ---------------------------------------


    POTLOK:  cpu time      0.0724: real time      0.0910
    SETDIJ:  cpu time      0.0705: real time      0.0707
    EDDIAG:  cpu time      0.1370: real time      0.1374
  RMM-DIIS:  cpu time      0.7002: real time      0.7030
    ORTHCH:  cpu time      0.0204: real time      0.0204
       DOS:  cpu time      0.0023: real time      0.0023
    CHARGE:  cpu time      0.2324: real time      0.2331
    MIXING:  cpu time      0.0071: real time      0.0114
    --------------------------------------------
      LOOP:  cpu time      1.2422: real time      1.2694

 eigenvalue-minimisations  :  2592
 total energy-change (2. order) : 0.5648079E+01  (-0.2912858E+00)
 number of electron     256.0000001 magnetization 
 augmentation part      -14.8875118 magnetization 

 Broyden mixing:
  rms(total) = 0.17932E+01    rms(broyden)= 0.17932E+01
  rms(prec ) = 0.19628E+01
  weight for this iteration     100.00

 eigenvalues of (default mixing * dielectric matrix)
  average eigenvalue GAMMA=   2.5112
  2.5112

 Free energy of the ion-electron system (eV)
  ---------------------------------------------------
  alpha Z        PSCENC =       112.36798480
  Ewald energy   TEWEN  =     -7419.27296937
  -Hartree energ DENC   =      -380.16745866
  -exchange      EXHF   =         0.00000000
  -V(xc)+E(xc)   XCENC  =      -545.82304758
  PAW double counting   =     12945.76900051   -11843.05546738
  entropy T*S    EENTRO =         0.01146011
  eigenvalues    EBANDS =       196.20110280
  atomic energy  EATOM  =      6564.79586099
  Solvation  Ediel_sol  =         0.00000000
  ---------------------------------------------------
  free energy    TOTEN  =      -369.17353378 eV

  energy without entropy =     -369.18499389  energy(sigma->0) =     -369.17735381


--------------------------------------------------------------------------------------------------------




--------------------------------------- Iteration      1(   7)  ---------------------------------------


    POTLOK:  cpu time      0.0736: real time      0.0892
    SETDIJ:  cpu time      0.0696: real time      0.0698
    EDDIAG:  cpu time      0.1355: real time      0.1360
  RMM-DIIS:  cpu time      0.7130: real time      0.7158
    ORTHCH:  cpu time      0.0208: real time      0.0209
       DOS:  cpu time      0.0029: real time      0.0029
    CHARGE:  cpu time      0.2302: real time      0.2310
    MIXING:  cpu time      0.0127: real time      0.0142
    --------------------------------------------
      LOOP:  cpu time      1.2583: real time      1.2798

 eigenvalue-minimisations  :  2659
 total energy-change (2. order) : 0.2505110E+01  (-0.7435953E+00)
 number of electron     256.0000001 magnetization 
 augmentation part      -14.6379815 magnetization 

 Broyden mixing:
  rms(total) = 0.10859E+00    rms(broyden)= 0.10859E+00
  rms(prec ) = 0.13627E+00
  weight for this iteration     100.00

 eigenvalues of (default mixing * dielectric matrix)
  average eigenvalue GAMMA=   2.2752
  2.2752  2.2752

 Free energy of the ion-electron system (eV)
  ---------------------------------------------------
  alpha Z        PSCENC =       112.36798480
  Ewald energy   TEWEN  =     -7419.27296937
  -Hartree energ DENC   =      -459.96269731
  -exchange      EXHF   =         0.00000000
  -V(xc)+E(xc)   XCENC  =      -532.61431511
  PAW double counting   =     30905.71890925   -29808.21688331
  entropy T*S    EENTRO =         0.03119029
  eigenvalues    EBANDS =       270.48449629
  atomic energy  EATOM  =      6564.79586099
  Solvation  Ediel_sol  =         0.00000000
  ---------------------------------------------------
  free energy    TOTEN  =      -366.66842349 eV

  energy without entropy =     -366.69961378  energy(sigma->0) =     -366.67882025


--------------------------------------------------------------------------------------------------------




--------------------------------------- Iteration      1(   8)  ---------------------------------------


    POTLOK:  cpu time      0.0765: real time      0.0951
    SETDIJ:  cpu time      0.0698: real time      0.0715
    EDDIAG:  cpu time      0.1355: real time      0.1382
  RMM-DIIS:  cpu time      0.6828: real time      0.7068
    ORTHCH:  cpu time      0.0202: real time      0.0208
       DOS:  cpu time      0.0025: real time      0.0026
    CHARGE:  cpu time      0.2305: real time      0.2337
    MIXING:  cpu time      0.0107: real time      0.0115
    --------------------------------------------
      LOOP:  cpu time      1.2285: real time      1.2802

 eigenvalue-minimisations  :  2612
 total energy-change (2. order) :-0.3584551E-01  (-0.6724392E-01)
 number of electron     256.0000001 magnetization 
 augmentation part      -14.6936292 magnetization 

 Broyden mixing:
  rms(total) = 0.51623E-01    rms(broyden)= 0.51623E-01
  rms(prec ) = 0.55195E-01
  weight for this iteration     100.00

 eigenvalues of (default mixing * dielectric matrix)
  average eigenvalue GAMMA=   2.0954
  2.5492  1.8685  1.8685

 Free energy of the ion-electron system (eV)
  ---------------------------------------------------
  alpha Z        PSCENC =       112.36798480
  Ewald energy   TEWEN  =     -7419.27296937
  -Hartree energ DENC   =      -451.61912296
  -exchange      EXHF   =         0.00000000
  -V(xc)+E(xc)   XCENC  =      -533.30517651
  PAW double counting   =     30629.96337033   -29531.46177383
  entropy T*S    EENTRO =         0.03230061
  eigenvalues    EBANDS =       261.79525693
  atomic energy  EATOM  =      6564.79586099
  Solvation  Ediel_sol  =         0.00000000
  ---------------------------------------------------
  free energy    TOTEN  =      -366.70426901 eV

  energy without entropy =     -366.73656962  energy(sigma->0) =     -366.71503588


--------------------------------------------------------------------------------------------------------




--------------------------------------- Iteration      1(   9)  ---------------------------------------


    POTLOK:  cpu time      0.0759: real time      0.0940
    SETDIJ:  cpu time      0.0660: real time      0.0678
    EDDIAG:  cpu time      0.1345: real time      0.1373
  RMM-DIIS:  cpu time      0.6955: real time      0.7180
    ORTHCH:  cpu time      0.0209: real time      0.0216
       DOS:  cpu time      0.0012: real time      0.0014
    CHARGE:  cpu time      0.2307: real time      0.2315
    MIXING:  cpu time      0.0123: real time      0.0123
    --------------------------------------------
      LOOP:  cpu time      1.2371: real time      1.2839

 eigenvalue-minimisations  :  2664
 total energy-change (2. order) :-0.2144602E-01  (-0.2017785E-01)
 number of electron     256.0000001 magnetization 
 augmentation part      -14.6804977 magnetization 

 Broyden mixing:
  rms(total) = 0.59209E-01    rms(broyden)= 0.59209E-01
  rms(prec ) = 0.66990E-01
  weight for this iteration     100.00

 eigenvalues of (default mixing * dielectric matrix)
  average eigenvalue GAMMA=   1.9506
  2.5367  2.4114  2.4114  0.4428

 Free energy of the ion-electron system (eV)
  ---------------------------------------------------
  alpha Z        PSCENC =       112.36798480
  Ewald energy   TEWEN  =     -7419.27296937
  -Hartree energ DENC   =      -454.75277337
  -exchange      EXHF   =         0.00000000
  -V(xc)+E(xc)   XCENC  =      -532.88278967
  PAW double counting   =     31017.74760982   -29919.50978651
  entropy T*S    EENTRO =         0.03227738
  eigenvalues    EBANDS =       264.74887090
  atomic energy  EATOM  =      6564.79586099
  Solvation  Ediel_sol  =         0.00000000
  ---------------------------------------------------
  free energy    TOTEN  =      -366.72571503 eV

  energy without entropy =     -366.75799241  energy(sigma->0) =     -366.73647416


--------------------------------------------------------------------------------------------------------




--------------------------------------- Iteration      1(  10)  ---------------------------------------


    POTLOK:  cpu time      0.0709: real time      0.0904
    SETDIJ:  cpu time      0.0680: real time      0.0699
    EDDIAG:  cpu time      0.1340: real time      0.1367
  RMM-DIIS:  cpu time      0.7071: real time      0.7307
    ORTHCH:  cpu time      0.0202: real time      0.0209
       DOS:  cpu time      0.0013: real time      0.0013
    CHARGE:  cpu time      0.2281: real time      0.2314
    MIXING:  cpu time      0.0116: real time      0.0117
    --------------------------------------------
      LOOP:  cpu time      1.2412: real time      1.2932

 eigenvalue-minimisations  :  2745
 total energy-change (2. order) :-0.3732581E-02  (-0.3634126E-02)
 number of electron     256.0000001 magnetization 
 augmentation part      -14.6871363 magnetization 

 Broyden mixing:
  rms(total) = 0.74103E-01    rms(broyden)= 0.74103E-01
  rms(prec ) = 0.80947E-01
  weight for this iteration     100.00

 eigenvalues of (default mixing * dielectric matrix)
  average eigenvalue GAMMA=   1.4902
  2.6326  2.0076  2.0076  0.6528  0.1503

 Free energy of the ion-electron system (eV)
  ---------------------------------------------------
  alpha Z        PSCENC =       112.36798480
  Ewald energy   TEWEN  =     -7419.27296937
  -Hartree energ DENC   =      -454.78256894
  -exchange      EXHF   =         0.00000000
  -V(xc)+E(xc)   XCENC  =      -532.87925962
  PAW double counting   =     31025.32124547   -29927.08467443
  entropy T*S    EENTRO =         0.03227583
  eigenvalues    EBANDS =       264.77265766
  atomic energy  EATOM  =      6564.79586099
  Solvation  Ediel_sol  =         0.00000000
  ---------------------------------------------------
  free energy    TOTEN  =      -366.72944761 eV

  energy without entropy =     -366.76172344  energy(sigma->0) =     -366.74020622


--------------------------------------------------------------------------------------------------------




--------------------------------------- Iteration      1(  11)  ---------------------------------------


    POTLOK:  cpu time      0.0754: real time      0.0945
    SETDIJ:  cpu time      0.0679: real time      0.0681
    EDDIAG:  cpu time      0.1346: real time      0.1350
  RMM-DIIS:  cpu time      0.6955: real time      0.6989
    ORTHCH:  cpu time      0.0205: real time      0.0207
       DOS:  cpu time      0.0016: real time      0.0016
    CHARGE:  cpu time      0.2306: real time      0.2317
    MIXING:  cpu time      0.0125: real time      0.0126
    --------------------------------------------
      LOOP:  cpu time      1.2385: real time      1.2631

 eigenvalue-minimisations  :  2592
 total energy-change (2. order) : 0.3435344E-02  (-0.1176459E-02)
 number of electron     256.0000001 magnetization 
 augmentation part      -14.7011142 magnetization 

 Broyden mixing:
  rms(total) = 0.75966E-01    rms(broyden)= 0.75966E-01
  rms(prec ) = 0.76707E-01
  weight for this iteration     100.00

 eigenvalues of (default mixing * dielectric matrix)
  average eigenvalue GAMMA=   1.3227
  2.5104  2.5104  1.4237  0.6668  0.6668  0.1580

 Free energy of the ion-electron system (eV)
  ---------------------------------------------------
  alpha Z        PSCENC =       112.36798480
  Ewald energy   TEWEN  =     -7419.27296937
  -Hartree energ DENC   =      -452.34231127
  -exchange      EXHF   =         0.00000000
  -V(xc)+E(xc)   XCENC  =      -533.05098054
  PAW double counting   =     31021.69974673   -29923.20002206
  entropy T*S    EENTRO =         0.03228055
  eigenvalues    EBANDS =       262.24439791
  atomic energy  EATOM  =      6564.79586099
  Solvation  Ediel_sol  =         0.00000000
  ---------------------------------------------------
  free energy    TOTEN  =      -366.72601227 eV

  energy without entropy =     -366.75829282  energy(sigma->0) =     -366.73677245


--------------------------------------------------------------------------------------------------------




--------------------------------------- Iteration      1(  12)  ---------------------------------------


    POTLOK:  cpu time      0.0755: real time      0.0948
    SETDIJ:  cpu time      0.0671: real time      0.0674
    EDDIAG:  cpu time      0.1334: real time      0.1342
  RMM-DIIS:  cpu time      0.6840: real time      0.6879
    ORTHCH:  cpu time      0.0201: real time      0.0203
       DOS:  cpu time      0.0028: real time      0.0028
    CHARGE:  cpu time      0.2304: real time      0.2315
    MIXING:  cpu time      0.0128: real time      0.0129
    --------------------------------------------
      LOOP:  cpu time      1.2261: real time      1.2518

 eigenvalue-minimisations  :  2608
 total energy-change (2. order) :-0.5392498E-04  (-0.1805968E-03)
 number of electron     256.0000001 magnetization 
 augmentation part      -14.7045942 magnetization 

 Broyden mixing:
  rms(total) = 0.81718E-01    rms(broyden)= 0.81718E-01
  rms(prec ) = 0.82305E-01
  weight for this iteration     100.00

 eigenvalues of (default mixing * dielectric matrix)
  average eigenvalue GAMMA=   1.2415
  2.5179  2.5179  1.4453  0.7942  0.7942  0.4576  0.1636

 Free energy of the ion-electron system (eV)
  ---------------------------------------------------
  alpha Z        PSCENC =       112.36798480
  Ewald energy   TEWEN  =     -7419.27296937
  -Hartree energ DENC   =      -452.12299670
  -exchange      EXHF   =         0.00000000
  -V(xc)+E(xc)   XCENC  =      -533.08430961
  PAW double counting   =     30956.10778945   -29857.61375944
  entropy T*S    EENTRO =         0.03227428
  eigenvalues    EBANDS =       262.06405941
  atomic energy  EATOM  =      6564.79586099
  Solvation  Ediel_sol  =         0.00000000
  ---------------------------------------------------
  free energy    TOTEN  =      -366.72606619 eV

  energy without entropy =     -366.75834047  energy(sigma->0) =     -366.73682429


--------------------------------------------------------------------------------------------------------




--------------------------------------- Iteration      1(  13)  ---------------------------------------


    POTLOK:  cpu time      0.0751: real time      0.0954
    SETDIJ:  cpu time      0.0680: real time      0.0683
    EDDIAG:  cpu time      0.1736: real time      0.1745
  RMM-DIIS:  cpu time      0.7290: real time      0.7335
    ORTHCH:  cpu time      0.0207: real time      0.0207
       DOS:  cpu time      0.0017: real time      0.0017
    CHARGE:  cpu time      0.2293: real time      0.2306
    MIXING:  cpu time      0.0129: real time      0.0130
    --------------------------------------------
      LOOP:  cpu time      1.3103: real time      1.3376

 eigenvalue-minimisations  :  2741
 total energy-change (2. order) :-0.9565188E-04  (-0.3577366E-04)
 number of electron     256.0000001 magnetization 
 augmentation part      -14.7050262 magnetization 

 Broyden mixing:
  rms(total) = 0.85907E-01    rms(broyden)= 0.85907E-01
  rms(prec ) = 0.86433E-01
  weight for this iteration     100.00

 eigenvalues of (default mixing * dielectric matrix)
  average eigenvalue GAMMA=   1.6046
  2.7549  2.7549  2.5454  1.9030  1.1023  0.8057  0.8057  0.1648

 Free energy of the ion-electron system (eV)
  ---------------------------------------------------
  alpha Z        PSCENC =       112.36798480
  Ewald energy   TEWEN  =     -7419.27296937
  -Hartree energ DENC   =      -452.17418199
  -exchange      EXHF   =         0.00000000
  -V(xc)+E(xc)   XCENC  =      -533.07597466
  PAW double counting   =     30993.77228270   -29895.27768191
  entropy T*S    EENTRO =         0.03227508
  eigenvalues    EBANDS =       262.10624252
  atomic energy  EATOM  =      6564.79586099
  Solvation  Ediel_sol  =         0.00000000
  ---------------------------------------------------
  free energy    TOTEN  =      -366.72616185 eV

  energy without entropy =     -366.75843693  energy(sigma->0) =     -366.73692021


--------------------------------------------------------------------------------------------------------




--------------------------------------- Iteration      1(  14)  ---------------------------------------


    POTLOK:  cpu time      0.0738: real time      0.0938
    SETDIJ:  cpu time      0.0668: real time      0.0687
    EDDIAG:  cpu time      0.1322: real time      0.1353
  RMM-DIIS:  cpu time      0.6712: real time      0.6961
    ORTHCH:  cpu time      0.0201: real time      0.0208
       DOS:  cpu time      0.0014: real time      0.0014
    CHARGE:  cpu time      0.2281: real time      0.2320
    MIXING:  cpu time      0.0114: real time      0.0115
    --------------------------------------------
      LOOP:  cpu time      1.2050: real time      1.2596

 eigenvalue-minimisations  :  2592
 total energy-change (2. order) : 0.4075023E-03  (-0.1987652E-04)
 number of electron     256.0000001 magnetization 
 augmentation part      -14.7061870 magnetization 

 Broyden mixing:
  rms(total) = 0.72880E-01    rms(broyden)= 0.72880E-01
  rms(prec ) = 0.73760E-01
  weight for this iteration     100.00

 eigenvalues of (default mixing * dielectric matrix)
  average eigenvalue GAMMA=   1.4426
  2.7662  2.3987  2.3987  1.3269  1.3269  0.8589  0.8589  0.8835  0.1649

 Free energy of the ion-electron system (eV)
  ---------------------------------------------------
  alpha Z        PSCENC =       112.36798480
  Ewald energy   TEWEN  =     -7419.27296937
  -Hartree energ DENC   =      -451.73296818
  -exchange      EXHF   =         0.00000000
  -V(xc)+E(xc)   XCENC  =      -533.13170156
  PAW double counting   =     30758.17899745   -29659.71663593
  entropy T*S    EENTRO =         0.03226519
  eigenvalues    EBANDS =       261.75341226
  atomic energy  EATOM  =      6564.79586099
  Solvation  Ediel_sol  =         0.00000000
  ---------------------------------------------------
  free energy    TOTEN  =      -366.72575434 eV

  energy without entropy =     -366.75801954  energy(sigma->0) =     -366.73650941


--------------------------------------------------------------------------------------------------------




--------------------------------------- Iteration      1(  15)  ---------------------------------------


    POTLOK:  cpu time      0.0761: real time      0.0960
    SETDIJ:  cpu time      0.0675: real time      0.0679
    EDDIAG:  cpu time      0.1338: real time      0.1344
  RMM-DIIS:  cpu time      0.6939: real time      0.6984
    ORTHCH:  cpu time      0.0205: real time      0.0206
       DOS:  cpu time      0.0016: real time      0.0016
    CHARGE:  cpu time      0.2337: real time      0.2349
    MIXING:  cpu time      0.0121: real time      0.0123
    --------------------------------------------
      LOOP:  cpu time      1.2393: real time      1.2660

 eigenvalue-minimisations  :  2609
 total energy-change (2. order) :-0.2648935E-03  (-0.7823892E-05)
 number of electron     256.0000001 magnetization 
 augmentation part      -14.7067958 magnetization 

 Broyden mixing:
  rms(total) = 0.68409E-01    rms(broyden)= 0.68409E-01
  rms(prec ) = 0.69111E-01
  weight for this iteration     100.00

 eigenvalues of (default mixing * dielectric matrix)
  average eigenvalue GAMMA=   1.4606
  2.5868  2.5868  2.4385  1.5892  1.5892  0.9121  0.9121  0.9414  0.8851  0.1649

 Free energy of the ion-electron system (eV)
  ---------------------------------------------------
  alpha Z        PSCENC =       112.36798480
  Ewald energy   TEWEN  =     -7419.27296937
  -Hartree energ DENC   =      -451.70954717
  -exchange      EXHF   =         0.00000000
  -V(xc)+E(xc)   XCENC  =      -533.12520394
  PAW double counting   =     30775.11245664   -29676.64298776
  entropy T*S    EENTRO =         0.03225844
  eigenvalues    EBANDS =       261.71612814
  atomic energy  EATOM  =      6564.79586099
  Solvation  Ediel_sol  =         0.00000000
  ---------------------------------------------------
  free energy    TOTEN  =      -366.72601924 eV

  energy without entropy =     -366.75827768  energy(sigma->0) =     -366.73677205


--------------------------------------------------------------------------------------------------------




--------------------------------------- Iteration      1(  16)  ---------------------------------------


    POTLOK:  cpu time      0.0730: real time      0.0930
    SETDIJ:  cpu time      0.0708: real time      0.0713
    EDDIAG:  cpu time      0.1335: real time      0.1345
  RMM-DIIS:  cpu time      0.6898: real time      0.6938
    ORTHCH:  cpu time      0.0206: real time      0.0208
       DOS:  cpu time      0.0016: real time      0.0016
    CHARGE:  cpu time      0.2316: real time      0.2329
    MIXING:  cpu time      0.0116: real time      0.0121
    --------------------------------------------
      LOOP:  cpu time      1.2326: real time      1.2600

 eigenvalue-minimisations  :  2592
 total energy-change (2. order) :-0.3110082E-03  (-0.1044904E-04)
 number of electron     256.0000001 magnetization 
 augmentation part      -14.7057929 magnetization 

 Broyden mixing:
  rms(total) = 0.54956E-01    rms(broyden)= 0.54956E-01
  rms(prec ) = 0.55305E-01
  weight for this iteration     100.00

 eigenvalues of (default mixing * dielectric matrix)
  average eigenvalue GAMMA=   1.4610
  2.6377  2.6377  2.4101  1.4654  1.4654  1.7511  0.9223  0.9223  0.8471  0.8471
  0.1649

 Free energy of the ion-electron system (eV)
  ---------------------------------------------------
  alpha Z        PSCENC =       112.36798480
  Ewald energy   TEWEN  =     -7419.27296937
  -Hartree energ DENC   =      -452.05862462
  -exchange      EXHF   =         0.00000000
  -V(xc)+E(xc)   XCENC  =      -533.08812669
  PAW double counting   =     30802.21181780   -29703.74741881
  entropy T*S    EENTRO =         0.03226548
  eigenvalues    EBANDS =       262.03288018
  atomic energy  EATOM  =      6564.79586099
  Solvation  Ediel_sol  =         0.00000000
  ---------------------------------------------------
  free energy    TOTEN  =      -366.72633024 eV

  energy without entropy =     -366.75859572  energy(sigma->0) =     -366.73708540


--------------------------------------------------------------------------------------------------------




--------------------------------------- Iteration      1(  17)  ---------------------------------------


    POTLOK:  cpu time      0.0867: real time      0.0884
    SETDIJ:  cpu time      0.0748: real time      0.0752
    EDDIAG:  cpu time      0.1342: real time      0.1352
  RMM-DIIS:  cpu time      0.6852: real time      0.6891
    ORTHCH:  cpu time      0.0204: real time      0.0206
       DOS:  cpu time      0.0016: real time      0.0019
    CHARGE:  cpu time      0.2309: real time      0.2321
    MIXING:  cpu time      0.0141: real time      0.0141
    --------------------------------------------
      LOOP:  cpu time      1.2480: real time      1.2565

 eigenvalue-minimisations  :  2593
 total energy-change (2. order) :-0.5205591E-04  (-0.2422139E-05)
 number of electron     256.0000001 magnetization 
 augmentation part      -14.7051819 magnetization 

 Broyden mixing:
  rms(total) = 0.39580E-01    rms(broyden)= 0.39580E-01
  rms(prec ) = 0.39864E-01
  weight for this iteration     100.00

 eigenvalues of (default mixing * dielectric matrix)
  average eigenvalue GAMMA=   1.3766
  2.6246  2.6246  2.4330  1.5011  1.5011  1.7389  0.9299  0.9299  0.1649  0.8456
  0.7167  0.5088

 Free energy of the ion-electron system (eV)
  ---------------------------------------------------
  alpha Z        PSCENC =       112.36798480
  Ewald energy   TEWEN  =     -7419.27296937
  -Hartree energ DENC   =      -452.11440570
  -exchange      EXHF   =         0.00000000
  -V(xc)+E(xc)   XCENC  =      -533.09144844
  PAW double counting   =     30712.48795495   -29614.02934642
  entropy T*S    EENTRO =         0.03226660
  eigenvalues    EBANDS =       262.09772030
  atomic energy  EATOM  =      6564.79586099
  Solvation  Ediel_sol  =         0.00000000
  ---------------------------------------------------
  free energy    TOTEN  =      -366.72638230 eV

  energy without entropy =     -366.75864890  energy(sigma->0) =     -366.73713783


--------------------------------------------------------------------------------------------------------




--------------------------------------- Iteration      1(  18)  ---------------------------------------


    POTLOK:  cpu time      0.0775: real time      0.0960
    SETDIJ:  cpu time      0.0667: real time      0.0672
    EDDIAG:  cpu time      0.1335: real time      0.1344
  RMM-DIIS:  cpu time      0.5637: real time      0.5668
    ORTHCH:  cpu time      0.0206: real time      0.0206
       DOS:  cpu time      0.0026: real time      0.0026
    CHARGE:  cpu time      0.2305: real time      0.2318
    MIXING:  cpu time      0.0126: real time      0.0126
    --------------------------------------------
      LOOP:  cpu time      1.1076: real time      1.1319

 eigenvalue-minimisations  :  2062
 total energy-change (2. order) :-0.2502296E-04  (-0.4300520E-06)
 number of electron     256.0000001 magnetization 
 augmentation part      -14.7050804 magnetization 

 Broyden mixing:
  rms(total) = 0.29443E-01    rms(broyden)= 0.29443E-01
  rms(prec ) = 0.29692E-01
  weight for this iteration     100.00

 eigenvalues of (default mixing * dielectric matrix)
  average eigenvalue GAMMA=   1.4617
  1.8613  1.8613  2.6614  2.6614  2.4130  1.7884  1.0239  1.0239  0.8964  0.8964
  0.8745  0.8745  0.1649

 Free energy of the ion-electron system (eV)
  ---------------------------------------------------
  alpha Z        PSCENC =       112.36798480
  Ewald energy   TEWEN  =     -7419.27296937
  -Hartree energ DENC   =      -452.11758290
  -exchange      EXHF   =         0.00000000
  -V(xc)+E(xc)   XCENC  =      -533.09675623
  PAW double counting   =     30650.48504337   -29552.02797985
  entropy T*S    EENTRO =         0.03226503
  eigenvalues    EBANDS =       262.10772684
  atomic energy  EATOM  =      6564.79586099
  Solvation  Ediel_sol  =         0.00000000
  ---------------------------------------------------
  free energy    TOTEN  =      -366.72640732 eV

  energy without entropy =     -366.75867235  energy(sigma->0) =     -366.73716233


--------------------------------------------------------------------------------------------------------




--------------------------------------- Iteration      1(  19)  ---------------------------------------


    POTLOK:  cpu time      0.0738: real time      0.0939
    SETDIJ:  cpu time      0.0656: real time      0.0673
    EDDIAG:  cpu time      0.1325: real time      0.1353
  RMM-DIIS:  cpu time      0.6767: real time      0.7006
    ORTHCH:  cpu time      0.0210: real time      0.0218
       DOS:  cpu time      0.0014: real time      0.0014
    CHARGE:  cpu time      0.2290: real time      0.2325
    MIXING:  cpu time      0.0118: real time      0.0119
    --------------------------------------------
      LOOP:  cpu time      1.2118: real time      1.2646

 eigenvalue-minimisations  :  2607
 total energy-change (2. order) :-0.5125800E-04  (-0.2150900E-05)
 number of electron     256.0000001 magnetization 
 augmentation part      -14.7048162 magnetization 

 Broyden mixing:
  rms(total) = 0.10201E-01    rms(broyden)= 0.10201E-01
  rms(prec ) = 0.10312E-01
  weight for this iteration     100.00

 eigenvalues of (default mixing * dielectric matrix)
  average eigenvalue GAMMA=   1.7917
  6.2557  2.8167  2.4481  2.4481  1.9021  1.9021  1.2777  1.2777  0.9085  0.9085
  0.9477  0.9477  0.8780  0.1649

 Free energy of the ion-electron system (eV)
  ---------------------------------------------------
  alpha Z        PSCENC =       112.36798480
  Ewald energy   TEWEN  =     -7419.27296937
  -Hartree energ DENC   =      -452.16076828
  -exchange      EXHF   =         0.00000000
  -V(xc)+E(xc)   XCENC  =      -533.10146761
  PAW double counting   =     30556.31358226   -29457.85665430
  entropy T*S    EENTRO =         0.03226155
  eigenvalues    EBANDS =       262.15571138
  atomic energy  EATOM  =      6564.79586099
  Solvation  Ediel_sol  =         0.00000000
  ---------------------------------------------------
  free energy    TOTEN  =      -366.72645858 eV

  energy without entropy =     -366.75872013  energy(sigma->0) =     -366.73721243


--------------------------------------------------------------------------------------------------------




--------------------------------------- Iteration      1(  20)  ---------------------------------------


    POTLOK:  cpu time      0.0698: real time      0.0892
    SETDIJ:  cpu time      0.0737: real time      0.0755
    EDDIAG:  cpu time      0.1322: real time      0.1351
  RMM-DIIS:  cpu time      0.6646: real time      0.6873
    ORTHCH:  cpu time      0.0200: real time      0.0207
       DOS:  cpu time      0.0019: real time      0.0019
    CHARGE:  cpu time      0.2283: real time      0.2316
    MIXING:  cpu time      0.0118: real time      0.0119
    --------------------------------------------
      LOOP:  cpu time      1.2023: real time      1.2534

 eigenvalue-minimisations  :  2547
 total energy-change (2. order) :-0.8939465E-05  (-0.9164094E-06)
 number of electron     256.0000001 magnetization 
 augmentation part      -14.7046452 magnetization 

 Broyden mixing:
  rms(total) = 0.15439E-02    rms(broyden)= 0.15438E-02
  rms(prec ) = 0.15812E-02
  weight for this iteration     100.00

 eigenvalues of (default mixing * dielectric matrix)
  average eigenvalue GAMMA=   1.6947
  6.5126  2.8040  2.4504  2.4504  1.8760  1.8760  1.3049  1.3049  0.9109  0.9109
  0.9463  0.9463  0.8751  0.1649  0.0873

 Free energy of the ion-electron system (eV)
  ---------------------------------------------------
  alpha Z        PSCENC =       112.36798480
  Ewald energy   TEWEN  =     -7419.27296937
  -Hartree energ DENC   =      -452.17604581
  -exchange      EXHF   =         0.00000000
  -V(xc)+E(xc)   XCENC  =      -533.10373355
  PAW double counting   =     30516.86369913   -29418.40611900
  entropy T*S    EENTRO =         0.03225944
  eigenvalues    EBANDS =       262.17259586
  atomic energy  EATOM  =      6564.79586099
  Solvation  Ediel_sol  =         0.00000000
  ---------------------------------------------------
  free energy    TOTEN  =      -366.72646752 eV

  energy without entropy =     -366.75872696  energy(sigma->0) =     -366.73722067


--------------------------------------------------------------------------------------------------------




--------------------------------------- Iteration      1(  21)  ---------------------------------------


    POTLOK:  cpu time      0.0762: real time      0.0955
    SETDIJ:  cpu time      0.0686: real time      0.0688
    EDDIAG:  cpu time      0.1337: real time      0.1341
  RMM-DIIS:  cpu time      0.4484: real time      0.4502
    ORTHCH:  cpu time      0.0204: real time      0.0205
       DOS:  cpu time      0.0014: real time      0.0014
    CHARGE:  cpu time      0.2314: real time      0.2321
    MIXING:  cpu time      0.0115: real time      0.0115
    --------------------------------------------
      LOOP:  cpu time      0.9917: real time      1.0142

 eigenvalue-minimisations  :  1575
 total energy-change (2. order) :-0.1324879E-05  (-0.1678182E-06)
 number of electron     256.0000001 magnetization 
 augmentation part      -14.7045050 magnetization 

 Broyden mixing:
  rms(total) = 0.69701E-03    rms(broyden)= 0.69692E-03
  rms(prec ) = 0.70142E-03
  weight for this iteration     100.00

 eigenvalues of (default mixing * dielectric matrix)
  average eigenvalue GAMMA=   1.8808
  9.8197  2.6612  2.5014  2.5014  1.6787  1.6787  1.5199  1.5199  0.1649  0.9612
  0.9612  0.8998  0.8998  0.8666  0.7292  0.7292

 Free energy of the ion-electron system (eV)
  ---------------------------------------------------
  alpha Z        PSCENC =       112.36798480
  Ewald energy   TEWEN  =     -7419.27296937
  -Hartree energ DENC   =      -452.18639930
  -exchange      EXHF   =         0.00000000
  -V(xc)+E(xc)   XCENC  =      -533.10327369
  PAW double counting   =     30513.14028978   -29414.68304438
  entropy T*S    EENTRO =         0.03225916
  eigenvalues    EBANDS =       262.18282317
  atomic energy  EATOM  =      6564.79586099
  Solvation  Ediel_sol  =         0.00000000
  ---------------------------------------------------
  free energy    TOTEN  =      -366.72646885 eV

  energy without entropy =     -366.75872801  energy(sigma->0) =     -366.73722190


--------------------------------------------------------------------------------------------------------




--------------------------------------- Iteration      1(  22)  ---------------------------------------


    POTLOK:  cpu time      0.0778: real time      0.0969
    SETDIJ:  cpu time      0.0685: real time      0.0687
    EDDIAG:  cpu time      0.1334: real time      0.1339
  RMM-DIIS:  cpu time      0.4466: real time      0.4483
    ORTHCH:  cpu time      0.0208: real time      0.0208
       DOS:  cpu time      0.0013: real time      0.0013
    --------------------------------------------
      LOOP:  cpu time      0.7483: real time      0.7698

 eigenvalue-minimisations  :  1535
 total energy-change (2. order) :-0.6322571E-06  (-0.2649788E-07)
 number of electron     256.0000001 magnetization 
 augmentation part      -14.7045050 magnetization 

 Free energy of the ion-electron system (eV)
  ---------------------------------------------------
  alpha Z        PSCENC =       112.36798480
  Ewald energy   TEWEN  =     -7419.27296937
  -Hartree energ DENC   =      -452.19126300
  -exchange      EXHF   =         0.00000000
  -V(xc)+E(xc)   XCENC  =      -533.10255058
  PAW double counting   =     30517.64680295   -29419.18980239
  entropy T*S    EENTRO =         0.03225918
  eigenvalues    EBANDS =       262.18720795
  atomic energy  EATOM  =      6564.79586099
  Solvation  Ediel_sol  =         0.00000000
  ---------------------------------------------------
  free energy    TOTEN  =      -366.72646948 eV

  energy without entropy =     -366.75872866  energy(sigma->0) =     -366.73722254


--------------------------------------------------------------------------------------------------------




 average (electrostatic) potential at core
  the test charge radii are     0.9892
  (the norm of the test charge is              1.0000)
       1 -82.5405       2 -82.5405       3 -82.5405       4 -82.5405       5 -82.5405
       6 -82.5405       7 -82.5405       8 -82.5405       9 -82.5405      10 -82.5405
      11 -82.5405      12 -82.5405      13 -82.5405      14 -82.5405      15 -82.5405
      16 -82.5405      17 -82.5405      18 -82.5405      19 -82.5405      20 -82.5405
      21 -82.5405      22 -82.5405      23 -82.5405      24 -82.5405      25 -82.5405
      26 -82.5405      27 -82.5405      28 -82.5405      29 -82.5405      30 -82.5405
      31 -82.5405      32 -82.5405      33 -82.5405      34 -82.5405      35 -82.5405
      36 -82.5405      37 -82.5405      38 -82.5405      39 -82.5405      40 -82.5405
      41 -82.5405      42 -82.5405      43 -82.5405      44 -82.5405      45 -82.5405
      46 -82.5405      47 -82.5405      48 -82.5405      49 -82.5405      50 -82.5405
      51 -82.5405      52 -82.5405      53 -82.5405      54 -82.5405      55 -82.5405
      56 -82.5405      57 -82.5405      58 -82.5405      59 -82.5405      60 -82.5405
      61 -82.5405      62 -82.5405      63 -82.5405      64 -82.5405
 
 
 
 E-fermi :   6.4912     XC(G=0):  -9.7192     alpha+bet :-12.5095

 val. band max:        6.2672039864   @ k =   0.0000   0.0000   0.0000
 cond. band min:       6.6367599951   @ k =   0.0000   0.0000   0.5000
 fundamental gap:      0.3695560086
 Fermi energy:         6.4911544318

 k-point     1 :       0.0000    0.0000    0.0000
  band No.  band energies     occupation 
      1      -6.0559      2.00000
      2      -4.9415      2.00000
      3      -4.9415      2.00000
      4      -4.9224      2.00000
      5      -4.9224      2.00000
      6      -4.9222      2.00000
      7      -4.9222      2.00000
      8      -3.9520      2.00000
      9      -3.9520      2.00000
     10      -3.9224      2.00000
     11      -3.9224      2.00000
     12      -3.9224      2.00000
     13      -3.9224      2.00000
     14      -3.9087      2.00000
     15      -3.9087      2.00000
     16      -3.9086      2.00000
     17      -3.9086      2.00000
     18      -3.8922      2.00000
     19      -3.8922      2.00000
     20      -3.6275      2.00000
     21      -3.6275      2.00000
     22      -3.5587      2.00000
     23      -3.5587      2.00000
     24      -1.7765      2.00000
     25      -1.7765      2.00000
     26      -1.7550      2.00000
     27      -1.7134      2.00000
     28      -1.7134      2.00000
     29      -1.6727      2.00000
     30      -1.5973      2.00000
     31      -1.5973      2.00000
     32      -1.5751      2.00000
     33      -1.5751      2.00000
     34      -1.5507      2.00000
     35      -1.5507      2.00000
     36      -1.5507      2.00000
     37      -1.5507      2.00000
     38      -1.5041      2.00000
     39      -1.5041      2.00000
     40      -1.4824      2.00000
     41      -1.4824      2.00000
     42      -0.9944      2.00000
     43      -0.9944      2.00000
     44      -0.9806      2.00000
     45      -0.9806      2.00000
     46       0.6383      2.00000
     47       0.6383      2.00000
     48       0.6384      2.00000
     49       0.6384      2.00000
     50       0.6569      2.00000
     51       0.6569      2.00000
     52       0.6759      2.00000
     53       0.6759      2.00000
     54       0.6759      2.00000
     55       0.6760      2.00000
     56       0.6942      2.00000
     57       0.6942      2.00000
     58       2.1402      2.00000
     59       2.1402      2.00000
     60       2.1412      2.00000
     61       2.1412      2.00000
     62       2.1412      2.00000
     63       2.1412      2.00000
     64       2.1416      2.00000
     65       2.1416      2.00000
     66       2.1452      2.00000
     67       2.1452      2.00000
     68       2.1471      2.00000
     69       2.1471      2.00000
     70       2.2262      2.00000
     71       2.2262      2.00000
     72       2.2262      2.00000
     73       2.2262      2.00000
     74       2.2716      2.00000
     75       2.2716      2.00000
     76       2.2835      2.00000
     77       2.2835      2.00000
     78       2.2835      2.00000
     79       2.2835      2.00000
     80       2.2950      2.00000
     81       2.2950      2.00000
     82       2.6763      2.00000
     83       2.6763      2.00000
     84       2.7502      2.00000
[...]
 -0.000  -0.000   4.172   0.000  -0.000   7.771   0.000   0.000
  0.001   0.001   0.000   4.172   0.000   0.000   7.771   0.000
 -0.000  -0.000  -0.000   0.000   4.172   0.000   0.000   7.771
 -0.000  -0.000   7.771   0.000   0.000  14.488   0.000   0.000
  0.001   0.002   0.000   7.771   0.000   0.000  14.488   0.000
 -0.000  -0.000   0.000   0.000   7.771   0.000   0.000  14.487
 total augmentation occupancy for first ion, spin component:           1
  6.296  -2.484  -0.000  -0.027  -0.000  -0.000   0.010  -0.000
 -2.484   1.088   0.000   0.014   0.000   0.000  -0.005   0.000
 -0.000   0.000   3.092   0.000  -0.004  -0.702   0.000  -0.000
 -0.027   0.014   0.000   3.092   0.000   0.000  -0.702   0.000
  0.000   0.000  -0.004   0.000   3.111  -0.000   0.000  -0.710
 -0.000   0.000  -0.702   0.000  -0.000   0.169   0.000   0.000
  0.010  -0.005   0.000  -0.702   0.000   0.000   0.169   0.000
 -0.000   0.000  -0.000   0.000  -0.710   0.000  -0.000   0.171


------------------------ aborting loop because EDIFF is reached ----------------------------------------


    CHARGE:  cpu time      0.2355: real time      0.2365
    FORLOC:  cpu time      0.0214: real time      0.0215
    FORNL :  cpu time      0.6586: real time      0.6623
    STRESS:  cpu time      2.0206: real time      2.0308
    FORCOR:  cpu time      0.0848: real time      0.0851
    FORHAR:  cpu time      0.0340: real time      0.0341
    MIXING:  cpu time      0.0374: real time      0.0375
    OFIELD:  cpu time      0.0001: real time      0.0000

  FORCE on cell =-STRESS in cart. coord.  units (eV):
  Direction    XX          YY          ZZ          XY          YZ          ZX
  --------------------------------------------------------------------------------------
  Alpha Z   112.36798   112.36798   112.36798
  Ewald   -2450.62860 -2484.46407 -2484.40986    -6.31978    -0.00000     0.00000
  Hartree   154.31606   148.90317   148.84661    -4.20902    -0.00000    -0.00000
  E(xc)    -826.44779  -826.13647  -826.14754     0.05108    -0.00000    -0.00000
  Local    -938.26753  -897.64631  -897.77960    11.63832    -0.00000    -0.00000
  n-local  2515.29688  2510.04418  2510.23420    -0.40109     0.00000     0.00000
  augment  -369.14349  -369.16724  -369.17441     0.36983     0.00000     0.00000
  Kinetic  1834.50255  1845.08790  1844.83093    -6.74512    -0.00000     0.00000
  Fock        0.00000     0.00000     0.00000     0.00000     0.00000     0.00000
  -------------------------------------------------------------------------------------
  Total      31.99606    38.98915    38.76832    -5.61578     0.00000     0.00000
  in kB      41.77680    50.90758    50.61925    -7.33244     0.00000     0.00000
  external pressure =       47.77 kB  Pullay stress =        0.00 kB


 VOLUME and BASIS-vectors are now :
 -----------------------------------------------------------------------------
  energy-cutoff  :      400.00
  volume of cell :     1227.08
      direct lattice vectors                 reciprocal lattice vectors
    10.777262592  0.053353008  0.000000000     0.092790237 -0.000463953  0.000000000
     0.053353008 10.670556576  0.000000000    -0.000463953  0.093718144  0.000000000
     0.000000000  0.000000000 10.670556576     0.000000000  0.000000000  0.093715824

  length of vectors
    10.777394653 10.670689958 10.670556576     0.092791397  0.093719292  0.093715824


 FORCES acting on ions
    electron-ion (+dipol)            ewald-force                    non-local-force                 convergence-correction
 -----------------------------------------------------------------------------------------------
   0.186E-08 0.269E-08 -.845E+00   -.888E-14 0.187E-13 0.600E+00   0.220E-20 0.538E-21 0.245E+00   -.522E-13 -.447E-14 0.119E-04
   0.186E-08 0.269E-08 -.845E+00   -.200E-13 0.222E-13 0.600E+00   0.143E-20 0.157E-20 0.245E+00   0.434E-13 -.320E-13 0.119E-04
   0.186E-08 0.269E-08 -.845E+00   -.933E-14 0.326E-13 0.600E+00   0.325E-20 0.148E-20 0.245E+00   0.299E-14 0.791E-14 0.119E-04
   0.186E-08 0.269E-08 -.845E+00   -.888E-15 0.258E-13 0.600E+00   0.172E-20 0.199E-20 0.245E+00   -.209E-13 0.296E-13 0.119E-04
   0.186E-08 0.269E-08 -.845E+00   -.198E-13 0.178E-13 0.600E+00   0.234E-20 -.638E-21 0.245E+00   0.619E-13 -.810E-13 0.119E-04
   0.186E-08 0.269E-08 -.845E+00   0.178E-14 0.142E-13 0.600E+00   0.307E-20 0.293E-20 0.245E+00   -.441E-13 0.661E-13 0.119E-04
   0.186E-08 0.269E-08 -.845E+00   -.107E-13 0.289E-13 0.600E+00   0.314E-20 0.176E-21 0.245E+00   0.341E-14 0.850E-13 0.119E-04
   0.186E-08 0.269E-08 -.845E+00   -.178E-13 0.142E-13 0.600E+00   0.198E-20 -.596E-23 0.245E+00   0.208E-13 -.658E-13 0.119E-04
   -.465E-09 -.111E-08 0.845E+00   -.222E-14 0.711E-14 -.600E+00   -.201E-20 -.425E-20 -.245E+00   -.190E-13 -.226E-13 -.119E-04
   -.465E-09 -.111E-08 0.845E+00   -.178E-14 0.711E-14 -.600E+00   0.599E-21 -.880E-20 -.245E+00   0.412E-13 0.189E-13 -.119E-04
   -.465E-09 -.111E-08 0.845E+00   -.933E-14 0.755E-14 -.600E+00   0.542E-20 0.694E-20 -.245E+00   0.696E-14 0.219E-13 -.119E-04
   -.465E-09 -.111E-08 0.845E+00   -.711E-14 0.533E-14 -.600E+00   0.814E-20 0.554E-20 -.245E+00   -.709E-14 -.209E-13 -.119E-04
   -.465E-09 -.111E-08 0.845E+00   -.933E-14 0.533E-14 -.600E+00   0.113E-20 0.613E-20 -.245E+00   0.100E-13 -.143E-12 -.119E-04
   -.465E-09 -.111E-08 0.845E+00   0.355E-14 0.533E-14 -.600E+00   0.107E-19 0.638E-20 -.245E+00   -.384E-13 0.128E-12 -.119E-04
   -.465E-09 -.111E-08 0.845E+00   -.115E-13 0.577E-14 -.600E+00   -.307E-20 -.512E-20 -.245E+00   -.256E-13 0.137E-12 -.119E-04
   -.465E-09 -.111E-08 0.845E+00   -.533E-14 0.533E-14 -.600E+00   0.118E-20 -.767E-20 -.245E+00   0.259E-13 -.137E-12 -.119E-04
   0.186E-08 0.269E-08 -.845E+00   -.777E-14 -.888E-15 0.600E+00   -.123E-20 0.641E-21 0.245E+00   -.537E-13 -.151E-12 0.119E-04
   0.186E-08 0.269E-08 -.845E+00   -.187E-13 -.888E-15 0.600E+00   0.201E-20 -.570E-20 0.245E+00   0.340E-13 0.103E-12 0.119E-04
   0.186E-08 0.269E-08 -.845E+00   -.799E-14 0.733E-14 0.600E+00   -.476E-20 0.272E-20 0.245E+00   -.227E-13 0.148E-12 0.119E-04
   0.186E-08 0.269E-08 -.845E+00   -.622E-14 0.107E-13 0.600E+00   0.199E-20 -.480E-21 0.245E+00   0.716E-14 -.978E-13 0.119E-04
   0.186E-08 0.269E-08 -.845E+00   -.124E-13 0.266E-14 0.600E+00   -.708E-20 0.357E-20 0.245E+00   0.560E-13 -.667E-13 0.119E-04
   0.186E-08 0.269E-08 -.845E+00   -.888E-15 0.133E-13 0.600E+00   0.141E-20 0.854E-21 0.245E+00   -.274E-13 0.542E-13 0.119E-04
   0.186E-08 0.269E-08 -.845E+00   0.622E-14 -.444E-15 0.600E+00   -.373E-20 -.101E-20 0.245E+00   0.228E-13 0.683E-13 0.119E-04
   0.186E-08 0.269E-08 -.845E+00   0.355E-14 0.711E-14 0.600E+00   -.534E-21 -.483E-20 0.245E+00   0.319E-14 -.446E-13 0.119E-04
   -.465E-09 -.111E-08 0.845E+00   0.355E-14 -.123E-13 -.600E+00   -.553E-20 -.157E-20 -.245E+00   0.157E-14 0.303E-13 -.119E-04
   -.465E-09 -.111E-08 0.845E+00   0.000E+00 -.160E-14 -.600E+00   -.241E-20 -.147E-20 -.245E+00   0.138E-13 -.525E-13 -.119E-04
   -.465E-09 -.111E-08 0.845E+00   -.533E-14 0.263E-14 -.600E+00   0.451E-20 -.157E-20 -.245E+00   -.283E-13 -.177E-13 -.119E-04
   -.465E-09 -.111E-08 0.845E+00   -.533E-14 -.149E-13 -.600E+00   -.178E-20 -.965E-21 -.245E+00   0.464E-13 0.536E-13 -.119E-04
   -.465E-09 -.111E-08 0.845E+00   -.666E-14 -.824E-14 -.600E+00   0.135E-21 0.483E-23 -.245E+00   0.547E-14 -.356E-13 -.119E-04
   -.465E-09 -.111E-08 0.845E+00   -.138E-13 0.242E-14 -.600E+00   0.363E-20 -.145E-20 -.245E+00   -.233E-13 -.103E-13 -.119E-04
   -.465E-09 -.111E-08 0.845E+00   0.107E-13 0.708E-14 -.600E+00   -.306E-20 -.166E-20 -.245E+00   0.309E-13 0.418E-13 -.119E-04
   -.465E-09 -.111E-08 0.845E+00   0.000E+00 -.714E-14 -.600E+00   -.106E-20 0.637E-21 -.245E+00   -.498E-13 0.750E-14 -.119E-04
   0.186E-08 0.269E-08 -.845E+00   0.577E-14 0.733E-14 0.600E+00   0.137E-19 0.502E-20 0.245E+00   -.987E-13 -.243E-13 0.119E-04
   0.186E-08 0.269E-08 -.845E+00   0.107E-13 0.711E-14 0.600E+00   0.724E-21 0.852E-20 0.245E+00   0.783E-13 0.169E-14 0.119E-04
   0.186E-08 0.269E-08 -.845E+00   0.400E-14 0.755E-14 0.600E+00   0.224E-20 -.563E-20 0.245E+00   -.180E-13 0.253E-13 0.119E-04
   0.186E-08 0.269E-08 -.845E+00   0.142E-13 0.755E-14 0.600E+00   -.130E-20 -.292E-20 0.245E+00   0.292E-13 0.109E-14 0.119E-04
   0.186E-08 0.269E-08 -.845E+00   -.444E-14 0.102E-13 0.600E+00   0.116E-20 -.785E-20 0.245E+00   0.972E-13 0.133E-13 0.119E-04
   0.186E-08 0.269E-08 -.845E+00   0.355E-14 0.622E-14 0.600E+00   -.267E-20 -.972E-21 0.245E+00   -.884E-13 -.347E-13 0.119E-04
   0.186E-08 0.269E-08 -.845E+00   0.622E-14 0.213E-13 0.600E+00   0.827E-20 0.223E-20 0.245E+00   0.155E-13 -.322E-14 0.119E-04
   0.186E-08 0.269E-08 -.845E+00   0.000E+00 0.711E-14 0.600E+00   0.529E-21 0.671E-20 0.245E+00   -.373E-13 0.241E-13 0.119E-04
   -.465E-09 -.111E-08 0.845E+00   0.510E-14 -.533E-14 -.600E+00   0.439E-20 0.260E-20 -.245E+00   -.770E-14 -.112E-13 -.119E-04
   -.465E-09 -.111E-08 0.845E+00   0.177E-14 -.533E-14 -.600E+00   0.324E-20 0.120E-21 -.245E+00   0.102E-13 0.709E-14 -.119E-04
   -.465E-09 -.111E-08 0.845E+00   -.598E-14 -.111E-13 -.600E+00   -.195E-20 0.249E-20 -.245E+00   -.700E-13 0.620E-14 -.119E-04
   -.465E-09 -.111E-08 0.845E+00   0.645E-14 -.111E-13 -.600E+00   -.217E-21 0.189E-20 -.245E+00   0.517E-13 -.253E-14 -.119E-04
   -.465E-09 -.111E-08 0.845E+00   0.266E-14 0.000E+00 -.600E+00   0.389E-20 0.498E-21 -.245E+00   0.760E-14 -.403E-13 -.119E-04
   -.465E-09 -.111E-08 0.845E+00   -.822E-14 0.000E+00 -.600E+00   0.157E-20 0.253E-21 -.245E+00   0.779E-15 0.369E-13 -.119E-04
   -.465E-09 -.111E-08 0.845E+00   0.147E-13 0.178E-14 -.600E+00   0.701E-20 0.566E-21 -.245E+00   0.682E-13 0.333E-13 -.119E-04
   -.465E-09 -.111E-08 0.845E+00   0.107E-13 0.178E-14 -.600E+00   -.250E-20 0.126E-20 -.245E+00   -.432E-13 -.333E-13 -.119E-04
   0.186E-08 0.269E-08 -.845E+00   0.107E-13 -.118E-13 0.600E+00   0.145E-21 -.541E-21 0.245E+00   -.366E-13 -.754E-13 0.119E-04
   0.186E-08 0.269E-08 -.845E+00   0.213E-13 -.129E-13 0.600E+00   -.481E-20 -.345E-20 0.245E+00   0.398E-13 0.457E-13 0.119E-04
   0.186E-08 0.269E-08 -.845E+00   0.622E-14 -.422E-14 0.600E+00   0.636E-21 -.104E-20 0.245E+00   0.259E-13 0.757E-13 0.119E-04
   0.186E-08 0.269E-08 -.845E+00   0.444E-14 -.400E-14 0.600E+00   0.195E-20 -.372E-21 0.245E+00   -.438E-13 -.386E-13 0.119E-04
   0.186E-08 0.269E-08 -.845E+00   0.866E-14 -.400E-14 0.600E+00   -.115E-20 -.152E-20 0.245E+00   0.425E-13 -.133E-12 0.119E-04
   0.186E-08 0.269E-08 -.845E+00   0.195E-13 -.115E-13 0.600E+00   -.841E-22 -.740E-22 0.245E+00   -.513E-13 0.112E-12 0.119E-04
   0.186E-08 0.269E-08 -.845E+00   0.355E-14 -.666E-14 0.600E+00   -.471E-20 -.168E-20 0.245E+00   -.487E-13 0.134E-12 0.119E-04
   0.186E-08 0.269E-08 -.845E+00   0.711E-14 -.711E-14 0.600E+00   -.657E-21 -.438E-20 0.245E+00   0.562E-13 -.104E-12 0.119E-04
   -.465E-09 -.111E-08 0.845E+00   -.431E-14 -.166E-13 -.600E+00   -.178E-21 -.793E-21 -.245E+00   -.108E-12 -.106E-12 -.119E-04
   -.465E-09 -.111E-08 0.845E+00   -.795E-15 -.155E-13 -.600E+00   -.415E-20 0.870E-21 -.245E+00   0.917E-13 0.595E-13 -.119E-04
   -.465E-09 -.111E-08 0.845E+00   0.148E-13 -.172E-13 -.600E+00   0.117E-20 0.133E-20 -.245E+00   -.937E-15 0.115E-12 -.119E-04
   -.465E-09 -.111E-08 0.845E+00   0.948E-14 -.173E-13 -.600E+00   -.884E-20 0.207E-20 -.245E+00   -.127E-13 -.542E-13 -.119E-04
   -.465E-09 -.111E-08 0.845E+00   0.931E-14 -.173E-13 -.600E+00   0.540E-20 0.171E-21 -.245E+00   0.135E-12 -.140E-12 -.119E-04
   -.465E-09 -.111E-08 0.845E+00   0.558E-14 -.204E-13 -.600E+00   -.403E-20 0.337E-20 -.245E+00   -.109E-12 0.119E-12 -.119E-04
   -.465E-09 -.111E-08 0.845E+00   0.216E-13 -.218E-13 -.600E+00   0.183E-20 -.294E-20 -.245E+00   0.845E-14 0.144E-12 -.119E-04
   -.465E-09 -.111E-08 0.845E+00   0.181E-13 -.178E-13 -.600E+00   -.370E-20 -.241E-20 -.245E+00   0.110E-13 -.109E-12 -.119E-04
 -----------------------------------------------------------------------------------------------
   0.448E-07 0.507E-07 0.244E-04   0.328E-13 0.689E-13 0.291E-13   0.406E-19 -.167E-20 -.555E-15   0.194E-13 0.627E-13 0.441E-10
 
 
 POSITION                                       TOTAL-FORCE (eV/Angst)
 -----------------------------------------------------------------------------------
      0.00000      0.00000      0.00412        -0.000000      0.000000     -0.000203
      0.00000      0.00000      5.33940        -0.000000      0.000000     -0.000203
      0.02668      5.33528      0.00412        -0.000000      0.000000     -0.000203
      0.02668      5.33528      5.33940        -0.000000      0.000000     -0.000203
      5.38863      0.02668      0.00412         0.000000      0.000000     -0.000203
      5.38863      0.02668      5.33940         0.000000      0.000000     -0.000203
      5.41531      5.36195      0.00412         0.000000      0.000000     -0.000203
      5.41531      5.36195      5.33940        -0.000000      0.000000     -0.000203
      4.06148      4.02147      1.32970         0.000000     -0.000000      0.000203
      4.06148      4.02147      6.66497         0.000000     -0.000000      0.000203
      4.08816      9.35674      1.32970         0.000000     -0.000000      0.000203
      4.08816      9.35674      6.66497         0.000000     -0.000000      0.000203
      9.45011      4.04814      1.32970         0.000000     -0.000000      0.000203
      9.45011      4.04814      6.66497         0.000000     -0.000000      0.000203
      9.47679      9.38342      1.32970         0.000000     -0.000000      0.000203
      9.47679      9.38342      6.66497        -0.000000     -0.000000      0.000203
      0.01334      2.66764      2.67176        -0.000000      0.000000     -0.000203
      0.01334      2.66764      8.00704        -0.000000      0.000000     -0.000203
      0.04001      8.00292      2.67176        -0.000000      0.000000     -0.000203
      0.04001      8.00292      8.00704        -0.000000      0.000000     -0.000203
      5.40197      2.69432      2.67176         0.000000      0.000000     -0.000203
      5.40197      2.69432      8.00704        -0.000000     -0.000000     -0.000203
      5.42865      8.02959      2.67176         0.000000      0.000000     -0.000203
      5.42865      8.02959      8.00704        -0.000000      0.000000     -0.000203
      4.04814      1.35383      3.99733         0.000000     -0.000000      0.000203
      4.04814      1.35383      9.33261         0.000000     -0.000000      0.000203
      4.07482      6.68911      3.99733        -0.000000     -0.000000      0.000203
      4.07482      6.68911      9.33261         0.000000      0.000000      0.000203
      9.43677      1.38050      3.99733        -0.000000     -0.000000      0.000203
      9.43677      1.38050      9.33261         0.000000     -0.000000      0.000203
      9.46345      6.71578      3.99733         0.000000     -0.000000      0.000203
      9.46345      6.71578      9.33261         0.000000     -0.000000      0.000203
      2.69432      0.01334      2.67176        -0.000000     -0.000000     -0.000203
      2.69432      0.01334      8.00704        -0.000000     -0.000000     -0.000203
      2.72099      5.34862      2.67176        -0.000000     -0.000000     -0.000203
      2.72099      5.34862      8.00704        -0.000000      0.000000     -0.000203
      8.08295      0.04001      2.67176        -0.000000     -0.000000     -0.000203
      8.08295      0.04001      8.00704        -0.000000     -0.000000     -0.000203
      8.10962      5.37529      2.67176         0.000000     -0.000000     -0.000203
      8.10962      5.37529      8.00704         0.000000     -0.000000     -0.000203
      1.36717      4.00813      3.99733        -0.000000      0.000000      0.000203
      1.36717      4.00813      9.33261        -0.000000     -0.000000      0.000203
      1.39384      9.34341      3.99733         0.000000      0.000000      0.000203
      1.39384      9.34341      9.33261         0.000000      0.000000      0.000203
      6.75580      4.03480      3.99733        -0.000000      0.000000      0.000203
      6.75580      4.03480      9.33261         0.000000      0.000000      0.000203
      6.78247      9.37008      3.99733        -0.000000      0.000000      0.000203
      6.78247      9.37008      9.33261        -0.000000      0.000000      0.000203
      2.70765      2.68098      0.00412         0.000000     -0.000000     -0.000203
      2.70765      2.68098      5.33940         0.000000     -0.000000     -0.000203
      2.73433      8.01626      0.00412        -0.000000     -0.000000     -0.000203
      2.73433      8.01626      5.33940        -0.000000     -0.000000     -0.000203
      8.09629      2.70765      0.00412        -0.000000     -0.000000     -0.000203
      8.09629      2.70765      5.33940         0.000000      0.000000     -0.000203
      8.12296      8.04293      0.00412         0.000000     -0.000000     -0.000203
      8.12296      8.04293      5.33940        -0.000000     -0.000000     -0.000203
      1.35383      1.34049      1.32970         0.000000      0.000000      0.000203
      1.35383      1.34049      6.66497         0.000000      0.000000      0.000203
      1.38050      6.67577      1.32970         0.000000      0.000000      0.000203
      1.38050      6.67577      6.66497         0.000000      0.000000      0.000203
      6.74246      1.36717      1.32970        -0.000000      0.000000      0.000203
      6.74246      1.36717      6.66497        -0.000000      0.000000      0.000203
      6.76913      6.70244      1.32970         0.000000      0.000000      0.000203
      6.76913      6.70244      6.66497        -0.000000      0.000000      0.000203
 -----------------------------------------------------------------------------------
    total drift:                                0.000000      0.000000      0.000024


--------------------------------------------------------------------------------------------------------



  FREE ENERGIE OF THE ION-ELECTRON SYSTEM (eV)
  ---------------------------------------------------
  free  energy   TOTEN  =      -366.74223621 eV

  energy  without entropy=     -366.77277384  energy(sigma->0) =     -366.75241542
 
 d Force = 0.2572116E-02[ 0.215E-04, 0.512E-02]  d Energy = 0.2577511E-02-0.540E-05
 d Force =-0.5932759E-01[-0.637E-01,-0.550E-01]  d Ewald  =-0.5932753E-01-0.660E-07


--------------------------------------------------------------------------------------------------------


    POTLOK:  cpu time      0.1406: real time      0.1417


--------------------------------------------------------------------------------------------------------




--------------------------------------------------------------------------------------------------------


  
 reached required accuracy - stopping structural energy minimisation
     LOOP+:  cpu time     12.5940: real time     12.7862
    4ORBIT:  cpu time      0.0000: real time      0.0000

 total amount of memory used by VASP MPI-rank0    79426. kBytes
=======================================================================

   base      :      30000. kBytes
   nonlr-proj:       4629. kBytes
   fftplans  :      17992. kBytes
   grid      :       6881. kBytes
   one-center:         18. kBytes
   wavefun   :      19906. kBytes
 
  
  
 General timing and accounting informations for this job:
 ========================================================
  
                  Total CPU time used (sec):       62.493
                            User time (sec):       58.992
                          System time (sec):        3.502
                         Elapsed time (sec):       66.637
  
                   Maximum memory used (kb):      406696.
                   Average memory used (kb):          N/A
  
                          Minor page faults:        91468
                          Major page faults:            0
                 Voluntary context switches:         9233
