  64  64   0   0
  0.1927808E+02  0.1058285E-08  0.1079880E-08  0.1079826E-08  0.5000000E-15
  1.000000000000000E-004
  CAR 
 Si64                                    
     11.62391380     -8.07404120  301      6.41197277      1.00000000
     -8.074  0.0000E+00  0.0000E+00
     -8.008  0.0000E+00  0.0000E+00
     -7.943  0.0000E+00  0.0000E+00
     -7.877  0.0000E+00  0.0000E+00
     -7.811  0.0000E+00  0.0000E+00
     -7.746  0.0000E+00  0.0000E+00
     -7.680 -0.1421E-28 -0.9328E-30
     -7.614 -0.2370E-26 -0.1566E-27
     -7.549 -0.3197E-24 -0.2115E-25
     -7.483 -0.3467E-22 -0.2298E-23
     -7.417 -0.3023E-20 -0.2008E-21
     -7.352 -0.2119E-18 -0.1411E-19
     -7.286 -0.1193E-16 -0.7974E-18
     -7.220 -0.5217E-15 -0.3506E-16
     -7.155 -0.1891E-13 -0.1277E-14
     -7.089 -0.5477E-12 -0.3724E-13
     -7.023 -0.1270E-10 -0.8711E-12
     -6.958 -0.2354E-09 -0.1632E-10
     -6.892 -0.3480E-08 -0.2448E-09
     -6.827 -0.4095E-07 -0.2934E-08
     -6.761 -0.3822E-06 -0.2803E-07
     -6.695 -0.2816E-05 -0.2129E-06
     -6.630 -0.1625E-04 -0.1280E-05
     -6.564 -0.7260E-04 -0.6047E-05
     -6.498 -0.2460E-03 -0.2220E-04
     -6.433 -0.6068E-03 -0.6204E-04
     -6.367 -0.9782E-03 -0.1263E-03
     -6.301 -0.5920E-03 -0.1651E-03
     -6.236  0.1630E-02 -0.5814E-04
     -6.170  0.5627E-02  0.3113E-03
     -6.104  0.9509E-02  0.9357E-03
     -6.039  0.1287E-01  0.1781E-02
     -5.973  0.2130E-01  0.3180E-02
     -5.907  0.4198E-01  0.5936E-02
     -5.842  0.7081E-01  0.1059E-01
     -5.776  0.9221E-01  0.1664E-01
     -5.710  0.1015E+00  0.2331E-01
     -5.645  0.1176E+00  0.3103E-01
     -5.579  0.1550E+00  0.4120E-01
     -5.513  0.1926E+00  0.5385E-01
     -5.448  0.1966E+00  0.6676E-01
     -5.382  0.1686E+00  0.7783E-01
     -5.316  0.1419E+00  0.8715E-01
     -5.251  0.1315E+00  0.9578E-01
     -5.185  0.1204E+00  0.1037E+00
     -5.119  0.9684E-01  0.1100E+00
     -5.054  0.7469E-01  0.1149E+00
     -4.988  0.7016E-01  0.1196E+00
     -4.922  0.8791E-01  0.1253E+00
     -4.857  0.1376E+00  0.1344E+00
     -4.791  0.2304E+00  0.1495E+00
     -4.725  0.3428E+00  0.1720E+00
     -4.660  0.4215E+00  0.1997E+00
     -4.594  0.4461E+00  0.2290E+00
     -4.528  0.4474E+00  0.2583E+00
     -4.463  0.4397E+00  0.2872E+00
     -4.397  0.3869E+00  0.3126E+00
     -4.331  0.2654E+00  0.3300E+00
     -4.266  0.1167E+00  0.3377E+00
     -4.200  0.9641E-02  0.3383E+00
     -4.134 -0.1718E-01  0.3372E+00
     -4.069  0.3755E-01  0.3397E+00
     -4.003  0.1572E+00  0.3500E+00
     -3.937  0.3095E+00  0.3703E+00
     -3.872  0.4432E+00  0.3994E+00
     -3.806  0.5041E+00  0.4325E+00
     -3.740  0.4692E+00  0.4633E+00
     -3.675  0.3677E+00  0.4875E+00
     -3.609  0.2661E+00  0.5049E+00
     -3.544  0.2301E+00  0.5200E+00
     -3.478  0.2897E+00  0.5391E+00
     -3.412  0.4231E+00  0.5669E+00
     -3.347  0.5674E+00  0.6041E+00
     -3.281  0.6595E+00  0.6474E+00
     -3.215  0.6752E+00  0.6917E+00
     -3.150  0.6303E+00  0.7331E+00
     -3.084  0.5542E+00  0.7695E+00
     -3.018  0.4759E+00  0.8008E+00
     -2.953  0.4255E+00  0.8287E+00
     -2.887  0.4151E+00  0.8559E+00
     -2.821  0.4120E+00  0.8830E+00
     -2.756  0.3606E+00  0.9067E+00
     -2.690  0.2463E+00  0.9228E+00
     -2.624  0.1142E+00  0.9303E+00
     -2.559  0.1882E-01  0.9316E+00
     -2.493 -0.2227E-01  0.9301E+00
     -2.427 -0.2075E-01  0.9288E+00
     -2.362  0.1269E-01  0.9296E+00
     -2.296  0.7358E-01  0.9344E+00
     -2.230  0.1440E+00  0.9439E+00
     -2.165  0.1857E+00  0.9561E+00
     -2.099  0.1683E+00  0.9671E+00
     -2.033  0.1041E+00  0.9740E+00
     -1.968  0.4732E-01  0.9771E+00
     -1.902  0.5745E-01  0.9808E+00
     -1.836  0.1600E+00  0.9913E+00
     -1.771  0.3285E+00  0.1013E+01
     -1.705  0.4917E+00  0.1045E+01
     -1.639  0.5677E+00  0.1082E+01
     -1.574  0.5145E+00  0.1116E+01
     -1.508  0.3600E+00  0.1140E+01
     -1.442  0.1852E+00  0.1152E+01
     -1.377  0.7090E-01  0.1157E+01
     -1.311  0.5069E-01  0.1160E+01
     -1.245  0.1001E+00  0.1167E+01
     -1.180  0.1622E+00  0.1177E+01
     -1.114  0.1894E+00  0.1190E+01
     -1.048  0.1747E+00  0.1201E+01
     -0.983  0.1565E+00  0.1211E+01
     -0.917  0.1873E+00  0.1224E+01
     -0.851  0.2763E+00  0.1242E+01
     -0.786  0.3601E+00  0.1266E+01
     -0.720  0.3657E+00  0.1290E+01
     -0.654  0.3140E+00  0.1310E+01
     -0.589  0.3215E+00  0.1331E+01
     -0.523  0.4784E+00  0.1363E+01
     -0.457  0.7416E+00  0.1411E+01
     -0.392  0.9558E+00  0.1474E+01
     -0.326  0.9708E+00  0.1538E+01
     -0.261  0.7555E+00  0.1587E+01
     -0.195  0.4215E+00  0.1615E+01
     -0.129  0.1369E+00  0.1624E+01
     -0.064  0.1234E-01  0.1625E+01
      0.002  0.5736E-01  0.1629E+01
      0.068  0.2037E+00  0.1642E+01
      0.133  0.3468E+00  0.1665E+01
      0.199  0.3981E+00  0.1691E+01
      0.265  0.3377E+00  0.1713E+01
      0.330  0.2200E+00  0.1728E+01
      0.396  0.1224E+00  0.1736E+01
      0.462  0.9530E-01  0.1742E+01
      0.527  0.1489E+00  0.1752E+01
      0.593  0.2605E+00  0.1769E+01
      0.659  0.3837E+00  0.1794E+01
      0.724  0.4623E+00  0.1824E+01
      0.790  0.4547E+00  0.1854E+01
      0.856  0.3591E+00  0.1878E+01
      0.921  0.2176E+00  0.1892E+01
      0.987  0.8938E-01  0.1898E+01
      1.053  0.1164E-01  0.1899E+01
      1.118 -0.1635E-01  0.1898E+01
      1.184 -0.1819E-01  0.1896E+01
      1.250 -0.1662E-01  0.1895E+01
      1.315 -0.2196E-01  0.1894E+01
      1.381 -0.2870E-01  0.1892E+01
      1.447 -0.1198E-01  0.1891E+01
      1.512  0.6694E-01  0.1896E+01
      1.578  0.2317E+00  0.1911E+01
      1.644  0.4557E+00  0.1941E+01
      1.709  0.6615E+00  0.1984E+01
      1.775  0.7635E+00  0.2034E+01
      1.841  0.7196E+00  0.2082E+01
      1.906  0.5630E+00  0.2119E+01
      1.972  0.3956E+00  0.2145E+01
      2.038  0.3176E+00  0.2165E+01
      2.103  0.3386E+00  0.2188E+01
      2.169  0.3765E+00  0.2212E+01
      2.235  0.3608E+00  0.2236E+01
      2.300  0.3252E+00  0.2257E+01
      2.366  0.3856E+00  0.2283E+01
      2.432  0.6232E+00  0.2324E+01
      2.497  0.9832E+00  0.2388E+01
      2.563  0.1285E+01  0.2473E+01
      2.629  0.1348E+01  0.2561E+01
      2.694  0.1124E+01  0.2635E+01
      2.760  0.7283E+00  0.2683E+01
      2.825  0.3368E+00  0.2705E+01
      2.891  0.7020E-01  0.2709E+01
      2.957 -0.5206E-01  0.2706E+01
      3.022 -0.6357E-01  0.2702E+01
      3.088  0.2082E-01  0.2703E+01
      3.154  0.2228E+00  0.2718E+01
      3.219  0.5442E+00  0.2754E+01
      3.285  0.9070E+00  0.2813E+01
      3.351  0.1182E+01  0.2891E+01
      3.416  0.1285E+01  0.2975E+01
      3.482  0.1225E+01  0.3055E+01
      3.548  0.1064E+01  0.3125E+01
      3.613  0.8693E+00  0.3182E+01
      3.679  0.7086E+00  0.3229E+01
      3.745  0.6364E+00  0.3271E+01
      3.810  0.6547E+00  0.3314E+01
      3.876  0.6977E+00  0.3359E+01
      3.942  0.6854E+00  0.3404E+01
      4.007  0.5975E+00  0.3444E+01
      4.073  0.4890E+00  0.3476E+01
      4.139  0.4305E+00  0.3504E+01
      4.204  0.4417E+00  0.3533E+01
      4.270  0.4910E+00  0.3565E+01
      4.336  0.5403E+00  0.3601E+01
      4.401  0.5734E+00  0.3638E+01
      4.467  0.5926E+00  0.3677E+01
      4.533  0.6158E+00  0.3718E+01
      4.598  0.6722E+00  0.3762E+01
      4.664  0.7688E+00  0.3812E+01
      4.730  0.8622E+00  0.3869E+01
      4.795  0.8864E+00  0.3927E+01
      4.861  0.8085E+00  0.3980E+01
      4.927  0.6489E+00  0.4023E+01
      4.992  0.4577E+00  0.4053E+01
      5.058  0.2898E+00  0.4072E+01
      5.124  0.1925E+00  0.4085E+01
      5.189  0.1872E+00  0.4097E+01
      5.255  0.2483E+00  0.4113E+01
      5.321  0.3133E+00  0.4134E+01
      5.386  0.3282E+00  0.4155E+01
      5.452  0.2845E+00  0.4174E+01
      5.518  0.2099E+00  0.4188E+01
      5.583  0.1365E+00  0.4197E+01
      5.649  0.8727E-01  0.4202E+01
      5.715  0.7607E-01  0.4207E+01
      5.780  0.1012E+00  0.4214E+01
      5.846  0.1396E+00  0.4223E+01
      5.912  0.1615E+00  0.4234E+01
      5.977  0.1537E+00  0.4244E+01
      6.043  0.1235E+00  0.4252E+01
      6.108  0.8546E-01  0.4258E+01
      6.174  0.5065E-01  0.4261E+01
      6.240  0.2608E-01  0.4263E+01
      6.305  0.1580E-01  0.4264E+01
      6.371  0.2113E-01  0.4265E+01
      6.437  0.4179E-01  0.4268E+01
      6.502  0.7534E-01  0.4273E+01
      6.568  0.1133E+00  0.4280E+01
      6.634  0.1401E+00  0.4290E+01
      6.699  0.1407E+00  0.4299E+01
      6.765  0.1126E+00  0.4306E+01
      6.831  0.7166E-01  0.4311E+01
      6.896  0.4369E-01  0.4314E+01
      6.962  0.4900E-01  0.4317E+01
      7.028  0.8877E-01  0.4323E+01
      7.093  0.1429E+00  0.4332E+01
      7.159  0.1839E+00  0.4344E+01
      7.225  0.2002E+00  0.4357E+01
      7.290  0.2081E+00  0.4371E+01
      7.356  0.2379E+00  0.4387E+01
      7.422  0.3002E+00  0.4406E+01
      7.487  0.3667E+00  0.4430E+01
      7.553  0.3933E+00  0.4456E+01
      7.619  0.3648E+00  0.4480E+01
      7.684  0.3140E+00  0.4501E+01
      7.750  0.2955E+00  0.4520E+01
      7.816  0.3358E+00  0.4542E+01
      7.881  0.4114E+00  0.4569E+01
      7.947  0.4829E+00  0.4601E+01
      8.013  0.5347E+00  0.4636E+01
      8.078  0.5670E+00  0.4673E+01
      8.144  0.5755E+00  0.4711E+01
      8.210  0.5710E+00  0.4749E+01
      8.275  0.5931E+00  0.4788E+01
      8.341  0.6716E+00  0.4832E+01
      8.407  0.7886E+00  0.4883E+01
      8.472  0.8983E+00  0.4942E+01
      8.538  0.9685E+00  0.5006E+01
      8.604  0.9892E+00  0.5071E+01
      8.669  0.9572E+00  0.5134E+01
      8.735  0.8677E+00  0.5191E+01
      8.801  0.7196E+00  0.5238E+01
      8.866  0.5336E+00  0.5273E+01
      8.932  0.3661E+00  0.5297E+01
      8.998  0.2796E+00  0.5315E+01
      9.063  0.2814E+00  0.5334E+01
      9.129  0.3081E+00  0.5354E+01
      9.194  0.2862E+00  0.5373E+01
      9.260  0.2005E+00  0.5386E+01
      9.326  0.9535E-01  0.5392E+01
      9.391  0.2116E-01  0.5394E+01
      9.457 -0.4894E-02  0.5393E+01
      9.523  0.3137E-02  0.5394E+01
      9.588  0.2131E-01  0.5395E+01
      9.654  0.3147E-01  0.5397E+01
      9.720  0.2776E-01  0.5399E+01
      9.785  0.1577E-01  0.5400E+01
      9.851  0.4696E-02  0.5400E+01
      9.917 -0.8229E-03  0.5400E+01
      9.982 -0.1821E-02  0.5400E+01
     10.048 -0.1136E-02  0.5400E+01
     10.114 -0.4547E-03  0.5400E+01
     10.179 -0.1321E-03  0.5400E+01
     10.245 -0.2910E-04  0.5400E+01
     10.311 -0.4967E-05  0.5400E+01
     10.376 -0.6647E-06  0.5400E+01
     10.442 -0.7023E-07  0.5400E+01
     10.508 -0.5888E-08  0.5400E+01
     10.573 -0.3931E-09  0.5400E+01
     10.639 -0.2094E-10  0.5400E+01
     10.705 -0.8922E-12  0.5400E+01
     10.770 -0.3044E-13  0.5400E+01
     10.836 -0.8313E-15  0.5400E+01
     10.902 -0.1409E-16  0.5400E+01
     10.967  0.0000E+00  0.5400E+01
     11.033  0.0000E+00  0.5400E+01
     11.099  0.0000E+00  0.5400E+01
     11.164  0.0000E+00  0.5400E+01
     11.230  0.0000E+00  0.5400E+01
     11.296  0.0000E+00  0.5400E+01
     11.361  0.0000E+00  0.5400E+01
     11.427  0.0000E+00  0.5400E+01
     11.493  0.0000E+00  0.5400E+01
     11.558  0.0000E+00  0.5400E+01
     11.624  0.0000E+00  0.5400E+01
