       N       E                     dE             d eps       ncg     rms          rms(c)
DAV:   1     0.568027939400E+03    0.56803E+03   -0.84512E+04  2592   0.106E+03
DAV:   2    -0.309763973527E+03   -0.87779E+03   -0.83228E+03  3088   0.173E+02
DAV:   3    -0.373041851146E+03   -0.63278E+02   -0.62063E+02  3144   0.412E+01
DAV:   4    -0.374663198836E+03   -0.16213E+01   -0.16104E+01  3128   0.804E+00
DAV:   5    -0.374714015610E+03   -0.50817E-01   -0.50717E-01  3128   0.132E+00    0.295E+01
RMM:   6    -0.369124268036E+03    0.55897E+01   -0.28873E+00  2592   0.266E+00    0.178E+01
RMM:   7    -0.366650776043E+03    0.24735E+01   -0.73325E+00  2640   0.424E+00    0.107E+00
RMM:   8    -0.366689113848E+03   -0.38338E-01   -0.70470E-01  2624   0.163E+00    0.527E-01
RMM:   9    -0.366710734096E+03   -0.21620E-01   -0.20636E-01  2674   0.796E-01    0.599E-01
RMM:  10    -0.366715018271E+03   -0.42842E-02   -0.36045E-02  2725   0.372E-01    0.870E-01
RMM:  11    -0.366711119341E+03    0.38989E-02   -0.14057E-02  2592   0.232E-01    0.552E-01
RMM:  12    -0.366711311874E+03   -0.19253E-03   -0.18702E-03  2604   0.102E-01    0.516E-01
RMM:  13    -0.366711373644E+03   -0.61770E-04   -0.36289E-04  2740   0.422E-02    0.612E-01
RMM:  14    -0.366711394132E+03   -0.20487E-04   -0.91862E-05  2604   0.237E-02    0.218E-01
RMM:  15    -0.366711430152E+03   -0.36020E-04   -0.31235E-05  2633   0.119E-02    0.165E-01
RMM:  16    -0.366711452194E+03   -0.22042E-04   -0.19011E-05  2592   0.954E-03    0.823E-02
RMM:  17    -0.366711455431E+03   -0.32366E-05   -0.63414E-06  2385   0.553E-03    0.194E-02
RMM:  18    -0.366711455715E+03   -0.28447E-06   -0.10847E-06  1577   0.236E-03
   1 F= -.36671146E+03 E0= -.36671948E+03  d E =-.366711E+03
       N       E                     dE             d eps       ncg     rms          rms(c)
DAV:   1    -0.366752220430E+03   -0.40765E-01   -0.22889E+00  2936   0.289E+00    0.680E-01
RMM:   2    -0.366763438568E+03   -0.11218E-01   -0.11624E-01  2594   0.720E-01    0.279E-01
RMM:   3    -0.366764829376E+03   -0.13908E-02   -0.17705E-02  2635   0.320E-01    0.117E-01
RMM:   4    -0.366764802189E+03    0.27187E-04   -0.25216E-03  2660   0.134E-01    0.447E-02
RMM:   5    -0.366764822315E+03   -0.20127E-04   -0.44386E-04  2683   0.520E-02    0.966E-03
RMM:   6    -0.366764832042E+03   -0.97261E-05   -0.97238E-05  2774   0.225E-02    0.221E-03
RMM:   7    -0.366764833424E+03   -0.13828E-05   -0.14895E-05  2377   0.844E-03    0.157E-03
RMM:   8    -0.366764833590E+03   -0.16609E-06   -0.24432E-06  1747   0.345E-03
   2 F= -.36676483E+03 E0= -.36676954E+03  d E =-.533779E-01
       N       E                     dE             d eps       ncg     rms          rms(c)
DAV:   1    -0.366772640035E+03   -0.78066E-02   -0.17141E-01  2912   0.790E-01    0.185E-01
RMM:   2    -0.366773457308E+03   -0.81727E-03   -0.84384E-03  2592   0.196E-01    0.769E-02
RMM:   3    -0.366773556057E+03   -0.98749E-04   -0.12763E-03  2640   0.866E-02    0.310E-02
RMM:   4    -0.366773554547E+03    0.15098E-05   -0.17714E-04  2648   0.361E-02    0.118E-02
RMM:   5    -0.366773556061E+03   -0.15139E-05   -0.32356E-05  2674   0.139E-02    0.238E-03
RMM:   6    -0.366773556669E+03   -0.60854E-06   -0.70098E-06  2092   0.611E-03    0.426E-04
RMM:   7    -0.366773556779E+03   -0.10962E-06   -0.10369E-06  1574   0.231E-03    0.438E-04
RMM:   8    -0.366773556820E+03   -0.41409E-07   -0.22932E-07  1348   0.106E-03
   3 F= -.36677356E+03 E0= -.36677938E+03  d E =-.621011E-01
