 vasp.6.4.3 19Mar24 (build Oct 21 2024 22:36:34) complex                        
  
 executed on             LinuxIFC date 2024.11.01  22:47:27
 running   96 mpi-ranks, on    1 nodes
 distrk:  each k-point on   24 cores,    4 groups
 distr:  one band on NCORE=  12 cores,    2 groups


--------------------------------------------------------------------------------------------------------


 INCAR:
   SYSTEM = Si64
   ISTART = 0
   ICHARG = 2
   LREAL = Auto
   PREC = Accurate
   LWAVE = .False.
   LCHARG = .False.
   ADDGRID = .True.
   ENCUT = 400
   GGA = PS
   GGA_COMPAT = .FALSE.
   ISMEAR = 1
   SIGMA = 0.2
   NELM = 60
   NELMIN = 8
   EDIFF = 1e-06
   EDIFFG = -0.01
   NSW = 60
   IBRION = 2
   ISIF = 2
   KPAR = 4
   NPAR = 2
   ALGO = Fast

 POTCAR:    PAW_PBE Si 05Jan2001                  
 POTCAR:    PAW_PBE Si 05Jan2001                  
   VRHFIN =Si: s2p2                                                                                 
   LEXCH  = PE                                                                                      
   EATOM  =   103.0669 eV,    7.5752 Ry                                                             
                                                                                                    
   TITEL  = PAW_PBE Si 05Jan2001                                                                    
   LULTRA =        F    use ultrasoft PP ?                                                          
   IUNSCR =        1    unscreen: 0-lin 1-nonlin 2-no                                               
   RPACOR =    1.500    partial core radius                                                         
   POMASS =   28.085; ZVAL   =    4.000    mass and valenz                                          
   RCORE  =    1.900    outmost cutoff radius                                                       
   RWIGS  =    2.480; RWIGS  =    1.312    wigner-seitz radius (au A)                               
   ENMAX  =  245.345; ENMIN  =  184.009 eV                                                          
   ICORE  =        2    local potential                                                             
   LCOR   =        T    correct aug charges                                                         
   LPAW   =        T    paw PP                                                                      
   EAUG   =  322.069                                                                                
   DEXC   =    0.000                                                                                
   RMAX   =    1.950    core radius for proj-oper                                                   
   RAUG   =    1.300    factor for augmentation sphere                                              
   RDEP   =    1.993    radius for radial grids                                                     
   RDEPT  =    1.837    core radius for aug-charge                                                  
                                                                                                    
   Atomic configuration                                                                             
    6 entries                                                                                       
     n  l   j            E        occ.                                                              
     1  0  0.50     -1785.8828   2.0000                                                             
     2  0  0.50      -139.4969   2.0000                                                             
     2  1  1.50       -95.5546   6.0000                                                             
     3  0  0.50       -10.8127   2.0000                                                             
     3  1  0.50        -4.0811   2.0000                                                             
     3  2  1.50        -4.0817   0.0000                                                             
   Description                                                                                      
     l       E           TYP  RCUT    TYP  RCUT                                                     
     0    -10.8127223     23  1.900                                                                 
     0     -7.6451159     23  1.900                                                                 
     1     -4.0811372     23  1.900                                                                 
     1      2.4879257     23  1.900                                                                 
     2     -4.0817478      7  1.900                                                                 
  local pseudopotential read in
  partial core-charges read in
  partial kinetic energy density read in
  atomic valenz-charges read in
  non local Contribution for L=           0  read in
    real space projection operators read in
  non local Contribution for L=           0  read in
    real space projection operators read in
  non local Contribution for L=           1  read in
    real space projection operators read in
  non local Contribution for L=           1  read in
    real space projection operators read in
    PAW grid and wavefunctions read in
 
   number of l-projection  operators is LMAX  =           4
   number of lm-projection operators is LMMAX =           8
 
 Optimization of the real space projectors (new method)

 maximal supplied QI-value         = 19.84
 optimisation between [QCUT,QGAM] = [ 10.12, 20.44] = [ 28.68,116.96] Ry 
 Optimized for a Real-space Cutoff    1.38 Angstroem

   l    n(q)    QCUT    max X(q) W(low)/X(q) W(high)/X(q)  e(spline) 
   0      8    10.119   159.560    0.58E-04    0.11E-03    0.54E-07
   0      8    10.119   115.863    0.56E-04    0.11E-03    0.54E-07
   1      8    10.119    88.339    0.22E-03    0.17E-03    0.19E-06
   1      8    10.119    48.592    0.22E-03    0.17E-03    0.18E-06
 -----------------------------------------------------------------------------
|                                                                             |
|               ----> ADVICE to this user running VASP <----                  |
|                                                                             |
|     You enforced a specific xc type in the INCAR file but a different       |
|     type was found in the POTCAR file.                                      |
|     I HOPE YOU KNOW WHAT YOU ARE DOING!                                     |
|                                                                             |
 -----------------------------------------------------------------------------

  PAW_PBE Si 05Jan2001                  :
 energy of atom  1       EATOM= -103.0669
 kinetic energy error for atom=    0.0012 (will be added to EATOM!!)
 
 
 POSCAR: Si8
  positions in direct lattice
  velocities in cartesian coordinates


 exchange-correlation table for PS
   RHO(1)=    0.500       N(1)  =     2000
   RHO(2)=  100.500       N(2)  =     4000
 


--------------------------------------------------------------------------------------------------------


 ion  position               nearest neighbor table
   1  0.000  0.000  0.000-  15 2.31  57 2.31  44 2.34  30 2.34
   2  0.000  0.000  0.500-  16 2.31  58 2.31  43 2.34  29 2.34
   3  0.000  0.500  0.000-  13 2.31  59 2.31  42 2.34  32 2.34
   4  0.000  0.500  0.500-  14 2.31  60 2.31  41 2.34  31 2.34
   5  0.500  0.000  0.000-  11 2.31  61 2.31  48 2.34  26 2.34
   6  0.500  0.000  0.500-  12 2.31  62 2.31  47 2.34  25 2.34
   7  0.500  0.500  0.000-   9 2.31  63 2.31  46 2.34  28 2.34
   8  0.500  0.500  0.500-  10 2.31  64 2.31  45 2.34  27 2.34
   9  0.375  0.375  0.125-   7 2.31  49 2.31  35 2.34  21 2.34
  10  0.375  0.375  0.625-   8 2.31  50 2.31  36 2.34  22 2.34
  11  0.375  0.875  0.125-   5 2.31  51 2.31  33 2.34  23 2.34
  12  0.375  0.875  0.625-   6 2.31  52 2.31  34 2.34  24 2.34
  13  0.875  0.375  0.125-   3 2.31  53 2.31  39 2.34  17 2.34
  14  0.875  0.375  0.625-   4 2.31  54 2.31  40 2.34  18 2.34
  15  0.875  0.875  0.125-   1 2.31  55 2.31  37 2.34  19 2.34
  16  0.875  0.875  0.625-   2 2.31  56 2.31  38 2.34  20 2.34
  17  0.000  0.250  0.250-  29 2.31  41 2.31  13 2.34  57 2.34
  18  0.000  0.250  0.750-  30 2.31  42 2.31  14 2.34  58 2.34
  19  0.000  0.750  0.250-  31 2.31  43 2.31  15 2.34  59 2.34
  20  0.000  0.750  0.750-  32 2.31  44 2.31  16 2.34  60 2.34
  21  0.500  0.250  0.250-  25 2.31  45 2.31   9 2.34  61 2.34
  22  0.500  0.250  0.750-  26 2.31  46 2.31  10 2.34  62 2.34
  23  0.500  0.750  0.250-  27 2.31  47 2.31  11 2.34  63 2.34
  24  0.500  0.750  0.750-  28 2.31  48 2.31  12 2.34  64 2.34
  25  0.375  0.125  0.375-  21 2.31  33 2.31   6 2.34  50 2.34
  26  0.375  0.125  0.875-  22 2.31  34 2.31   5 2.34  49 2.34
  27  0.375  0.625  0.375-  23 2.31  35 2.31   8 2.34  52 2.34
  28  0.375  0.625  0.875-  24 2.31  36 2.31   7 2.34  51 2.34
  29  0.875  0.125  0.375-  17 2.31  37 2.31   2 2.34  54 2.34
  30  0.875  0.125  0.875-  18 2.31  38 2.31   1 2.34  53 2.34
  31  0.875  0.625  0.375-  19 2.31  39 2.31   4 2.34  56 2.34
  32  0.875  0.625  0.875-  20 2.31  40 2.31   3 2.34  55 2.34
  33  0.250  0.000  0.250-  25 2.31  43 2.31  11 2.34  57 2.34
  34  0.250  0.000  0.750-  26 2.31  44 2.31  12 2.34  58 2.34
  35  0.250  0.500  0.250-  27 2.31  41 2.31   9 2.34  59 2.34
  36  0.250  0.500  0.750-  28 2.31  42 2.31  10 2.34  60 2.34
  37  0.750  0.000  0.250-  29 2.31  47 2.31  15 2.34  61 2.34
  38  0.750  0.000  0.750-  30 2.31  48 2.31  16 2.34  62 2.34
  39  0.750  0.500  0.250-  31 2.31  45 2.31  13 2.34  63 2.34
  40  0.750  0.500  0.750-  32 2.31  46 2.31  14 2.34  64 2.34
  41  0.125  0.375  0.375-  17 2.31  35 2.31   4 2.34  50 2.34
  42  0.125  0.375  0.875-  18 2.31  36 2.31   3 2.34  49 2.34
  43  0.125  0.875  0.375-  19 2.31  33 2.31   2 2.34  52 2.34
  44  0.125  0.875  0.875-  20 2.31  34 2.31   1 2.34  51 2.34
  45  0.625  0.375  0.375-  21 2.31  39 2.31   8 2.34  54 2.34
  46  0.625  0.375  0.875-  22 2.31  40 2.31   7 2.34  53 2.34
  47  0.625  0.875  0.375-  23 2.31  37 2.31   6 2.34  56 2.34
  48  0.625  0.875  0.875-  24 2.31  38 2.31   5 2.34  55 2.34
  49  0.250  0.250  0.000-   9 2.31  57 2.31  42 2.34  26 2.34
  50  0.250  0.250  0.500-  10 2.31  58 2.31  41 2.34  25 2.34
  51  0.250  0.750  0.000-  11 2.31  59 2.31  44 2.34  28 2.34
  52  0.250  0.750  0.500-  12 2.31  60 2.31  43 2.34  27 2.34
  53  0.750  0.250  0.000-  13 2.31  61 2.31  46 2.34  30 2.34
  54  0.750  0.250  0.500-  14 2.31  62 2.31  45 2.34  29 2.34
  55  0.750  0.750  0.000-  15 2.31  63 2.31  48 2.34  32 2.34
  56  0.750  0.750  0.500-  16 2.31  64 2.31  47 2.34  31 2.34
  57  0.125  0.125  0.125-   1 2.31  49 2.31  33 2.34  17 2.34
  58  0.125  0.125  0.625-   2 2.31  50 2.31  34 2.34  18 2.34
  59  0.125  0.625  0.125-   3 2.31  51 2.31  35 2.34  19 2.34
  60  0.125  0.625  0.625-   4 2.31  52 2.31  36 2.34  20 2.34
  61  0.625  0.125  0.125-   5 2.31  53 2.31  37 2.34  21 2.34
  62  0.625  0.125  0.625-   6 2.31  54 2.31  38 2.34  22 2.34
  63  0.625  0.625  0.125-   7 2.31  55 2.31  39 2.34  23 2.34
  64  0.625  0.625  0.625-   8 2.31  56 2.31  40 2.34  24 2.34
 
  LATTYP: Found a simple monoclinic cell.
 ALAT       =    10.5828504841
 B/A-ratio  =     1.0203550179
 C/A-ratio  =     1.0204060347
 COS(beta)  =    -0.0202020887
  
  Lattice vectors:
  
 A1 = (  10.5822995628,  -0.1079830159,   0.0000000000)
 A2 = (   0.0000000000,   0.0000000000, -10.7982645947)
 A3 = (  -0.1079830159,  10.7982645947,   0.0000000000)


Analysis of symmetry for initial positions (statically):
=====================================================================
 Subroutine PRICEL returns following result:
 
  LATTYP: Found a base centered monoclinic cell.
 ALAT       =     5.2914252420
 B/A-ratio  =     1.0203550179
 C/A-ratio  =     0.7071067474
 COS(beta)  =    -0.6925302794
  
  Lattice vectors:
  
 A1 = (  -2.6455748907,   0.0269957540,  -2.6995661487)
 A2 = (  -2.6455748907,   0.0269957540,   2.6995661487)
 A3 = (   2.6185791367,   2.6725703947,   0.0000000000)
 
  32 primitive cells build up your supercell.
 

 Routine SETGRP: Setting up the symmetry group for a 
 simple monoclinic supercell.


 Subroutine GETGRP returns: Found  4 space group operations
 (whereof  2 operations were pure point group operations)
 out of a pool of  4 trial point group operations.


The static configuration has the point symmetry C_2 .
 The point group associated with its full space group is C_2h.


Analysis of symmetry for dynamics (positions and initial velocities):
=====================================================================
 Subroutine PRICEL returns following result:
 
  LATTYP: Found a base centered monoclinic cell.
 ALAT       =     5.2914252420
 B/A-ratio  =     1.0203550179
 C/A-ratio  =     0.7071067474
 COS(beta)  =    -0.6925302794
  
  Lattice vectors:
  
 A1 = (  -2.6455748907,   0.0269957540,  -2.6995661487)
 A2 = (  -2.6455748907,   0.0269957540,   2.6995661487)
 A3 = (   2.6185791367,   2.6725703947,   0.0000000000)
 
  32 primitive cells build up your supercell.
 

 Routine SETGRP: Setting up the symmetry group for a 
 simple monoclinic supercell.


 Subroutine GETGRP returns: Found  4 space group operations
 (whereof  2 operations were pure point group operations)
 out of a pool of  4 trial point group operations.


The dynamic configuration has the point symmetry C_2 .
 The point group associated with its full space group is C_2h.


 Subroutine INISYM returns: Found  4 space group operations
 (whereof  2 operations are pure point group operations),
 and found    32 'primitive' translations


----------------------------------------------------------------------------------------

                                     Primitive cell                                     

  volume of cell :      38.5562

  direct lattice vectors                    reciprocal lattice vectors
    -2.645574891  0.026995754 -2.699566149    -0.187123978  0.183343700 -0.185214947
    -2.645574891  0.026995754  2.699566149    -0.187123978  0.183343700  0.185214947
     2.618579137  2.672570395  0.000000000     0.003780295  0.370467696  0.000000000

  length of vectors
     3.779874689  3.779874689  3.741602492     0.320834649  0.320834649  0.370486983

  position of ions in fractional coordinates (direct lattice)
     0.000000000  0.000000000  0.000000000
     0.750000000  0.250000000  0.500000000

  ion indices of the primitive-cell ions
   primitive index   ion index
                 1           1
                 2          15

----------------------------------------------------------------------------------------

 
 
 KPOINTS: Automatic mesh                          

Automatic generation of k-mesh.
 Grid dimensions read from file:
 generate k-points for:    2    2    2

 Generating k-lattice:

  Cartesian coordinates                     Fractional coordinates (reciprocal lattice)
     0.047253532  0.000472537  0.000000000     0.500000000  0.000000000  0.000000000
     0.000472537  0.046308462  0.000000000     0.000000000  0.500000000  0.000000000
     0.000000000  0.000000000  0.046303737     0.000000000  0.000000000  0.500000000

  Length of vectors
     0.047255894  0.046310873  0.046303737

  Shift w.r.t. Gamma in fractional coordinates (k-lattice)
     0.000000000  0.000000000  0.000000000

 
 Subroutine IBZKPT returns following result:
 ===========================================
 
 Found      8 irreducible k-points:
 
 Following reciprocal coordinates:
            Coordinates               Weight
  0.000000  0.000000  0.000000      1.000000
  0.500000 -0.000000  0.000000      1.000000
  0.000000  0.500000  0.000000      1.000000
  0.500000  0.500000  0.000000      1.000000
  0.000000  0.000000  0.500000      1.000000
  0.500000 -0.000000  0.500000      1.000000
  0.000000  0.500000  0.500000      1.000000
  0.500000  0.500000  0.500000      1.000000
 
 Following cartesian coordinates:
            Coordinates               Weight
  0.000000  0.000000  0.000000      1.000000
  0.047254  0.000473  0.000000      1.000000
  0.000473  0.046308  0.000000      1.000000
  0.047726  0.046781  0.000000      1.000000
  0.000000  0.000000  0.046304      1.000000
  0.047254  0.000473  0.046304      1.000000
  0.000473  0.046308  0.046304      1.000000
  0.047726  0.046781  0.046304      1.000000
 


--------------------------------------------------------------------------------------------------------




 Dimension of arrays:
   k-points           NKPTS =      8   k-points in BZ     NKDIM =      8   number of bands    NBANDS=    162
   number of dos      NEDOS =    301   number of ions     NIONS =     64
   non local maximal  LDIM  =      4   non local SUM 2l+1 LMDIM =      8
   total plane-waves  NPLWV = 343000
   max r-space proj   IRMAX =   3113   max aug-charges    IRDMAX=  74551
   dimension x,y,z NGX =    70 NGY =   70 NGZ =   70
   dimension x,y,z NGXF=   140 NGYF=  140 NGZF=  140
   support grid    NGXF=   280 NGYF=  280 NGZF=  280
   ions per type =              64
   NGX,Y,Z   is equivalent  to a cutoff of  11.00, 10.78, 10.78 a.u.
   NGXF,Y,Z  is equivalent  to a cutoff of  21.99, 21.55, 21.55 a.u.

 SYSTEM =  Si64                                    
 POSCAR =  Si8                                     

 Startparameter for this run:
   NWRITE =      2    write-flag & timer
   PREC   = accura    normal or accurate (medium, high low for compatibility)
   ISTART =      0    job   : 0-new  1-cont  2-samecut
   ICHARG =      2    charge: 1-file 2-atom 10-const
   ISPIN  =      1    spin polarized calculation?
   LNONCOLLINEAR =      F non collinear calculations
   LSORBIT =      F    spin-orbit coupling
   INIWAV =      1    electr: 0-lowe 1-rand  2-diag
   LASPH  =      F    aspherical Exc in radial PAW
 Electronic Relaxation 1
   ENCUT  =  400.0 eV  29.40 Ry    5.42 a.u.  17.26 17.61 17.61*2*pi/ulx,y,z
   ENINI  =  400.0     initial cutoff
   ENAUG  =  322.1 eV  augmentation charge cutoff
   NELM   =     60;   NELMIN=  8; NELMDL= -5     # of ELM steps 
   EDIFF  = 0.1E-05   stopping-criterion for ELM
   LREAL  =      T    real-space projection
   NLSPLINE    = F    spline interpolate recip. space projectors
   LCOMPAT=      F    compatible to vasp.4.4
   GGA_COMPAT  = F    GGA compatible to vasp.4.4-vasp.4.6
   LMAXPAW     = -100 max onsite density
   LMAXMIX     =    2 max onsite mixed and CHGCAR
   VOSKOWN=      0    Vosko Wilk Nusair interpolation
   ROPT   =   -0.00025
 Ionic relaxation
   EDIFFG = -.1E-01   stopping-criterion for IOM
   NSW    =     60    number of steps for IOM
   NBLOCK =      1;   KBLOCK =     60    inner block; outer block 
   IBRION =      2    ionic relax: 0-MD 1-quasi-New 2-CG
   NFREE  =      1    steps in history (QN), initial steepest desc. (CG)
   ISIF   =      2    stress and relaxation
   IWAVPR =     11    prediction:  0-non 1-charg 2-wave 3-comb
   ISYM   =      2    0-nonsym 1-usesym 2-fastsym
   LCORR  =      T    Harris-Foulkes like correction to forces

   POTIM  = 0.5000    time-step for ionic-motion
   TEIN   =    0.0    initial temperature
   TEBEG  =    0.0;   TEEND  =   0.0 temperature during run
   SMASS  =  -3.00    Nose mass-parameter (am)
   estimated Nose-frequenzy (Omega)   =  0.10E-29 period in steps = 0.13E+47 mass=  -0.256E-26a.u.
   SCALEE = 1.0000    scale energy and forces
   NPACO  =    256;   APACO  = 10.0  distance and # of slots for P.C.
   PSTRESS=    0.0 pullay stress

  Mass of Ions in am
   POMASS =  28.09
  Ionic Valenz
   ZVAL   =   4.00
  Atomic Wigner-Seitz radii
   RWIGS  =  -1.00
  virtual crystal weights 
   VCA    =   1.00
   NELECT =     256.0000    total number of electrons
   NUPDOWN=      -1.0000    fix difference up-down

 DOS related values:
   EMIN   =  10.00;   EMAX   =-10.00  energy-range for DOS
   EFERMI =   0.00;   METHOD = LEGACY      
   ISMEAR =     1;   SIGMA  =   0.20  broadening in eV -4-tet -1-fermi 0-gaus

 Electronic relaxation 2 (details)
   IALGO  =     68    algorithm
   LDIAG  =      T    sub-space diagonalisation (order eigenvalues)
   LSUBROT=      F    optimize rotation matrix (better conditioning)
   TURBO    =      0    0=normal 1=particle mesh
   IRESTART =      0    0=no restart 2=restart with 2 vectors
   NREBOOT  =      0    no. of reboots
   NMIN     =      0    reboot dimension
   EREF     =   0.00    reference energy to select bands
   IMIX   =      4    mixing-type and parameters
     AMIX     =   0.40;   BMIX     =  1.00
     AMIX_MAG =   1.60;   BMIX_MAG =  1.00
     AMIN     =   0.10
     WC   =   100.;   INIMIX=   1;  MIXPRE=   1;  MAXMIX= -45

 Intra band minimization:
   WEIMIN = 0.0010     energy-eigenvalue tresh-hold
   EBREAK =  0.15E-08  absolut break condition
   DEPER  =   0.30     relativ break condition  

   TIME   =   0.40     timestep for ELM

  volume/ion in A,a.u.               =      19.28       130.09
  Fermi-wavevector in a.u.,A,eV,Ry     =   0.969186  1.831495 12.780233  0.939321
  Thomas-Fermi vector in A             =   2.099217
 
 Write flags
   LWAVE        =      F    write WAVECAR
   LDOWNSAMPLE  =      F    k-point downsampling of WAVECAR
   LCHARG       =      F    write CHGCAR
   LVTOT        =      F    write LOCPOT, total local potential
   LVHAR        =      F    write LOCPOT, Hartree potential only
   WRT_POTENTIAL= false  ! write potential to hdf5 file
   LELF         =      F    write electronic localiz. function (ELF)
   LORBIT       =      0    0 simple, 1 ext, 2 COOP (PROOUT), +10 PAW based schemes


 Dipole corrections
   LMONO      =      F    monopole corrections only (constant potential shift)
   LDIPOL     =      F    correct potential (dipole corrections)
   IDIPOL     =      0    1-x, 2-y, 3-z, 4-all directions 
   EPSILON    =  1.0000000 bulk dielectric constant
   LVACPOTAV  =      F  vacuum potentials using an averaging scheme for the charge density
   VACPOTFLAT =  0.1000000 required flatness to determine vacuum potential
 Exchange correlation treatment:
   GGA     = PS    functional components
   XC_C    = 1    coefficients multiplying the functional components
   LIBXC   =     F    Libxc                    
   VOSKOWN =     0    Vosko Wilk Nusair interpolation
   LHFCALC =     F    Hartree Fock is set to
   LHFONE  =     F    Hartree Fock one center treatment
   AEXX    =    0.0000 exact exchange contribution

 Parameters of functionals:
   PS:
     No parameter
 
 Van der Waals corrections
   IVDW    =     0    specifies the selected vdW correction

 Linear response parameters
   LEPSILON=     F    determine dielectric tensor
   LRPA    =     F    only Hartree local field effects (RPA)
   LNABLA  =     F    use nabla operator in PAW spheres
   LVEL    =     F    velocity operator in full k-point grid
   CSHIFT  =0.1000    complex shift for real part using Kramers Kronig
   OMEGAMAX=  -1.0    maximum frequency
   DEG_THRESHOLD= 0.2000000E-02 threshold for treating states as degnerate
   RTIME   =   -0.100 relaxation time in fs
  (WPLASMAI=    0.000 imaginary part of plasma frequency in eV, 0.658/RTIME)
   DFIELD  = 0.0000000 0.0000000 0.0000000 field for delta impulse in time
 
  Optional k-point grid parameters
   LKPOINTS_OPT  =     F    use optional k-point grid
   KPOINTS_OPT_MODE=     1    mode for optional k-point grid
 
 Orbital magnetization related:
   ORBITALMAG=     F  switch on orbital magnetization
   LCHIMAG   =     F  perturbation theory with respect to B field
   DQ        =  0.001000  dq finite difference perturbation B field
   LLRAUG    =     F  two centre corrections for induced B field
   LBONE     =     F  B-component reconstruction in AE one-centre
   LVGVCALC  =     T  calculate vGv susceptibility
   LVGVAPPL  =     F  apply vGv susceptibility instead of pGv for G=0

 Random number generation:
   RANDOM_GENERATOR = DEFAULT
   PCG_SEED         = not used


--------------------------------------------------------------------------------------------------------


 conjugate gradient relaxation of ions
 charge density and potential will be updated during run
 non-spin polarized calculation
 RMM-DIIS sequential band-by-band and
  variant of blocked Davidson during initial phase
 perform sub-space diagonalisation
    before iterative eigenvector-optimisation
 modified Broyden-mixing scheme, WC =      100.0
 initial mixing is a Kerker type mixing with AMIX =  0.4000 and BMIX =      1.0000
 Hartree-type preconditioning will be used
 using additional bands           34
 real space projection scheme for non local part
 use partial core corrections
 calculate Harris-corrections to forces 
   (improved forces if not selfconsistent)
 use gradient corrections 
 use of overlap-Matrix (Vanderbilt PP)
 Methfessel and Paxton  Order N= 1 SIGMA  =   0.20


--------------------------------------------------------------------------------------------------------


  energy-cutoff  :      400.00
  volume of cell :     1233.80
      direct lattice vectors                 reciprocal lattice vectors
    10.582299563 -0.107983016  0.000000000     0.094507063  0.000945074  0.000000000
    -0.107983016 10.798264595  0.000000000     0.000945074  0.092616924  0.000000000
     0.000000000  0.000000000 10.798264595     0.000000000  0.000000000  0.092607473

  length of vectors
    10.582850484 10.798804498 10.798264595     0.094511788  0.092621746  0.092607473


 
 k-points in units of 2pi/SCALE and weight: Automatic mesh                          
   0.00000000  0.00000000  0.00000000       0.125
   0.04725354  0.00047254  0.00000000       0.125
   0.00047254  0.04630847  0.00000000       0.125
   0.04772608  0.04678101  0.00000000       0.125
   0.00000000  0.00000000  0.04630374       0.125
   0.04725354  0.00047254  0.04630374       0.125
   0.00047254  0.04630847  0.04630374       0.125
   0.04772608  0.04678101  0.04630374       0.125
 
 k-points in reciprocal lattice and weights: Automatic mesh                          
   0.00000000  0.00000000  0.00000000       0.125
   0.50000000 -0.00000000  0.00000000       0.125
   0.00000000  0.50000000  0.00000000       0.125
   0.50000000  0.50000000  0.00000000       0.125
   0.00000000  0.00000000  0.50000000       0.125
   0.50000000 -0.00000000  0.50000000       0.125
   0.00000000  0.50000000  0.50000000       0.125
   0.50000000  0.50000000  0.50000000       0.125
 
 position of ions in fractional coordinates (direct lattice) 
   0.00000000  0.00000000  0.00000000
   0.00000000  0.00000000  0.50000000
   0.00000000  0.50000000  0.00000000
   0.00000000  0.50000000  0.50000000
   0.50000000  0.00000000  0.00000000
   0.50000000  0.00000000  0.50000000
   0.50000000  0.50000000  0.00000000
   0.50000000  0.50000000  0.50000000
   0.37500000  0.37500000  0.12500000
   0.37500000  0.37500000  0.62500000
   0.37500000  0.87500000  0.12500000
   0.37500000  0.87500000  0.62500000
   0.87500000  0.37500000  0.12500000
   0.87500000  0.37500000  0.62500000
   0.87500000  0.87500000  0.12500000
   0.87500000  0.87500000  0.62500000
   0.00000000  0.25000000  0.25000000
   0.00000000  0.25000000  0.75000000
   0.00000000  0.75000000  0.25000000
   0.00000000  0.75000000  0.75000000
   0.50000000  0.25000000  0.25000000
   0.50000000  0.25000000  0.75000000
   0.50000000  0.75000000  0.25000000
   0.50000000  0.75000000  0.75000000
   0.37500000  0.12500000  0.37500000
   0.37500000  0.12500000  0.87500000
   0.37500000  0.62500000  0.37500000
   0.37500000  0.62500000  0.87500000
   0.87500000  0.12500000  0.37500000
   0.87500000  0.12500000  0.87500000
   0.87500000  0.62500000  0.37500000
   0.87500000  0.62500000  0.87500000
   0.25000000  0.00000000  0.25000000
   0.25000000  0.00000000  0.75000000
   0.25000000  0.50000000  0.25000000
   0.25000000  0.50000000  0.75000000
   0.75000000  0.00000000  0.25000000
   0.75000000  0.00000000  0.75000000
   0.75000000  0.50000000  0.25000000
   0.75000000  0.50000000  0.75000000
   0.12500000  0.37500000  0.37500000
   0.12500000  0.37500000  0.87500000
   0.12500000  0.87500000  0.37500000
   0.12500000  0.87500000  0.87500000
   0.62500000  0.37500000  0.37500000
   0.62500000  0.37500000  0.87500000
   0.62500000  0.87500000  0.37500000
   0.62500000  0.87500000  0.87500000
   0.25000000  0.25000000  0.00000000
   0.25000000  0.25000000  0.50000000
   0.25000000  0.75000000  0.00000000
   0.25000000  0.75000000  0.50000000
   0.75000000  0.25000000  0.00000000
   0.75000000  0.25000000  0.50000000
   0.75000000  0.75000000  0.00000000
   0.75000000  0.75000000  0.50000000
   0.12500000  0.12500000  0.12500000
   0.12500000  0.12500000  0.62500000
   0.12500000  0.62500000  0.12500000
   0.12500000  0.62500000  0.62500000
   0.62500000  0.12500000  0.12500000
   0.62500000  0.12500000  0.62500000
   0.62500000  0.62500000  0.12500000
   0.62500000  0.62500000  0.62500000
 
 position of ions in cartesian coordinates  (Angst):
   0.00000000  0.00000000  0.00000000
   0.00000000  0.00000000  5.39913230
  -0.05399151  5.39913230  0.00000000
  -0.05399151  5.39913230  5.39913230
   5.29114978 -0.05399151  0.00000000
   5.29114978 -0.05399151  5.39913230
   5.23715827  5.34514079  0.00000000
   5.23715827  5.34514079  5.39913230
   3.92786871  4.00885559  1.34978307
   3.92786871  4.00885559  6.74891537
   3.87387720  9.40798789  1.34978307
   3.87387720  9.40798789  6.74891537
   9.21901849  3.95486408  1.34978307
   9.21901849  3.95486408  6.74891537
   9.16502698  9.35399638  1.34978307
   9.16502698  9.35399638  6.74891537
  -0.02699575  2.69956615  2.69956615
  -0.02699575  2.69956615  8.09869845
  -0.08098726  8.09869845  2.69956615
  -0.08098726  8.09869845  8.09869845
   5.26415403  2.64557464  2.69956615
   5.26415403  2.64557464  8.09869845
   5.21016252  8.04470694  2.69956615
   5.21016252  8.04470694  8.09869845
   3.95486446  1.30928944  4.04934922
   3.95486446  1.30928944  9.44848152
   3.90087295  6.70842174  4.04934922
   3.90087295  6.70842174  9.44848152
   9.24601424  1.25529794  4.04934922
   9.24601424  1.25529794  9.44848152
   9.19202273  6.65443023  4.04934922
   9.19202273  6.65443023  9.44848152
   2.64557489 -0.02699575  2.69956615
   2.64557489 -0.02699575  8.09869845
   2.59158338  5.37213654  2.69956615
   2.59158338  5.37213654  8.09869845
   7.93672467 -0.08098726  2.69956615
   7.93672467 -0.08098726  8.09869845
   7.88273316  5.31814504  2.69956615
   7.88273316  5.31814504  8.09869845
   1.28229381  4.03585135  4.04934922
   1.28229381  4.03585135  9.44848152
   1.22830231  9.43498364  4.04934922
   1.22830231  9.43498364  9.44848152
   6.57344360  3.98185984  4.04934922
   6.57344360  3.98185984  9.44848152
   6.51945209  9.38099214  4.04934922
   6.51945209  9.38099214  9.44848152
   2.61857914  2.67257039  0.00000000
   2.61857914  2.67257039  5.39913230
   2.56458763  8.07170269  0.00000000
   2.56458763  8.07170269  5.39913230
   7.90972892  2.61857889  0.00000000
   7.90972892  2.61857889  5.39913230
   7.85573741  8.01771118  0.00000000
   7.85573741  8.01771118  5.39913230
   1.30928957  1.33628520  1.34978307
   1.30928957  1.33628520  6.74891537
   1.25529806  6.73541749  1.34978307
   1.25529806  6.73541749  6.74891537
   6.60043935  1.28229369  1.34978307
   6.60043935  1.28229369  6.74891537
   6.54644784  6.68142599  1.34978307
   6.54644784  6.68142599  6.74891537
 


--------------------------------------------------------------------------------------------------------


 k-point     1 :   0.0000 0.0000 0.0000  plane waves:   22447
 k-point     2 :   0.5000-0.0000 0.0000  plane waves:   22386
 k-point     3 :   0.0000 0.5000 0.0000  plane waves:   22428
 k-point     4 :   0.5000 0.5000 0.0000  plane waves:   22402
 k-point     5 :   0.0000 0.0000 0.5000  plane waves:   22424
 k-point     6 :   0.5000-0.0000 0.5000  plane waves:   22460
 k-point     7 :   0.0000 0.5000 0.5000  plane waves:   22392
 k-point     8 :   0.5000 0.5000 0.5000  plane waves:   22396

 maximum and minimum number of plane-waves per node :      1897     1846

 maximum number of plane-waves:     22460
 maximum index in each direction: 
   IXMAX=   17   IYMAX=   17   IZMAX=   17
   IXMIN=  -17   IYMIN=  -18   IZMIN=  -18


 real space projection operators:
  total allocation   :      11904.50 KBytes
  max/ min on nodes  :       1032.00        860.25


 parallel 3D FFT for wavefunctions:
    minimum data exchange during FFTs selected (reduces bandwidth)
 parallel 3D FFT for charge:
    minimum data exchange during FFTs selected (reduces bandwidth)


 total amount of memory used by VASP MPI-rank0    79666. kBytes
=======================================================================

   base      :      30000. kBytes
   nonlr-proj:       4598. kBytes
   fftplans  :      17993. kBytes
   grid      :       6881. kBytes
   one-center:         18. kBytes
   wavefun   :      20176. kBytes
 
     INWAV:  cpu time      0.0000: real time      0.0000
 Broyden mixing: mesh for mixing (old mesh)
   NGX = 35   NGY = 35   NGZ = 35
  (NGX  =140   NGY  =140   NGZ  =140)
  gives a total of  42875 points

 initial charge density was supplied:
 charge density of overlapping atoms calculated
 number of electron     256.0000000 magnetization 
 keeping initial charge density in first step


--------------------------------------------------------------------------------------------------------


 Maximum index for non-local projection operator          280
 Maximum index for augmentation-charges         3695 (set IRDMAX)


--------------------------------------------------------------------------------------------------------


 First call to EWALD:  gamma=   0.165
 Maximum number of real-space cells 3x 3x 3
 Maximum number of reciprocal cells 3x 3x 3

    FEWALD:  cpu time      0.0123: real time      0.0128


--------------------------------------- Ionic step        1  -------------------------------------------




--------------------------------------- Iteration      1(   1)  ---------------------------------------


    POTLOK:  cpu time      0.0812: real time      0.0843
    SETDIJ:  cpu time      0.0811: real time      0.0813
     EDDAV:  cpu time      1.2517: real time      1.3147
       DOS:  cpu time      0.0038: real time      0.0040
    --------------------------------------------
      LOOP:  cpu time      1.4178: real time      1.4843

 eigenvalue-minimisations  :  2592
 total energy-change (2. order) : 0.5680279E+03  (-0.8451152E+04)
 number of electron     256.0000000 magnetization 
 augmentation part      256.0000000 magnetization 

 Free energy of the ion-electron system (eV)
  ---------------------------------------------------
  alpha Z        PSCENC =       111.75598471
  Ewald energy   TEWEN  =     -7405.70011151
  -Hartree energ DENC   =      -334.36284025
  -exchange      EXHF   =         0.00000000
  -V(xc)+E(xc)   XCENC  =      -554.14098166
  PAW double counting   =      5598.62625415    -4492.17844134
  entropy T*S    EENTRO =         0.00645166
  eigenvalues    EBANDS =      1079.22576265
  atomic energy  EATOM  =      6564.79586099
  Solvation  Ediel_sol  =         0.00000000
  ---------------------------------------------------
  free energy    TOTEN  =       568.02793940 eV

  energy without entropy =      568.02148774  energy(sigma->0) =      568.02578885


--------------------------------------------------------------------------------------------------------




--------------------------------------- Iteration      1(   2)  ---------------------------------------


     EDDAV:  cpu time      1.3164: real time      1.3285
       DOS:  cpu time      0.0013: real time      0.0013
    --------------------------------------------
      LOOP:  cpu time      1.3177: real time      1.3298

 eigenvalue-minimisations  :  3088
 total energy-change (2. order) :-0.8777919E+03  (-0.8322758E+03)
 number of electron     256.0000000 magnetization 
 augmentation part      256.0000000 magnetization 

 Free energy of the ion-electron system (eV)
  ---------------------------------------------------
  alpha Z        PSCENC =       111.75598471
  Ewald energy   TEWEN  =     -7405.70011151
  -Hartree energ DENC   =      -334.36284025
  -exchange      EXHF   =         0.00000000
  -V(xc)+E(xc)   XCENC  =      -554.14098166
  PAW double counting   =      5598.62625415    -4492.17844134
  entropy T*S    EENTRO =         0.01876314
  eigenvalues    EBANDS =       201.42153823
  atomic energy  EATOM  =      6564.79586099
  Solvation  Ediel_sol  =         0.00000000
  ---------------------------------------------------
  free energy    TOTEN  =      -309.76397353 eV

  energy without entropy =     -309.78273667  energy(sigma->0) =     -309.77022791


--------------------------------------------------------------------------------------------------------




--------------------------------------- Iteration      1(   3)  ---------------------------------------


     EDDAV:  cpu time      1.3429: real time      1.3572
       DOS:  cpu time      0.0015: real time      0.0015
    --------------------------------------------
      LOOP:  cpu time      1.3444: real time      1.3587

 eigenvalue-minimisations  :  3144
 total energy-change (2. order) :-0.6327788E+02  (-0.6206328E+02)
 number of electron     256.0000000 magnetization 
 augmentation part      256.0000000 magnetization 

 Free energy of the ion-electron system (eV)
  ---------------------------------------------------
  alpha Z        PSCENC =       111.75598471
  Ewald energy   TEWEN  =     -7405.70011151
  -Hartree energ DENC   =      -334.36284025
  -exchange      EXHF   =         0.00000000
  -V(xc)+E(xc)   XCENC  =      -554.14098166
  PAW double counting   =      5598.62625415    -4492.17844134
  entropy T*S    EENTRO =         0.00696902
  eigenvalues    EBANDS =       138.15545474
  atomic energy  EATOM  =      6564.79586099
  Solvation  Ediel_sol  =         0.00000000
  ---------------------------------------------------
  free energy    TOTEN  =      -373.04185115 eV

  energy without entropy =     -373.04882017  energy(sigma->0) =     -373.04417415


--------------------------------------------------------------------------------------------------------




--------------------------------------- Iteration      1(   4)  ---------------------------------------


     EDDAV:  cpu time      1.3149: real time      1.3267
       DOS:  cpu time      0.0012: real time      0.0012
    --------------------------------------------
      LOOP:  cpu time      1.3160: real time      1.3279

 eigenvalue-minimisations  :  3128
 total energy-change (2. order) :-0.1621348E+01  (-0.1610361E+01)
 number of electron     256.0000000 magnetization 
 augmentation part      256.0000000 magnetization 

 Free energy of the ion-electron system (eV)
  ---------------------------------------------------
  alpha Z        PSCENC =       111.75598471
  Ewald energy   TEWEN  =     -7405.70011151
  -Hartree energ DENC   =      -334.36284025
  -exchange      EXHF   =         0.00000000
  -V(xc)+E(xc)   XCENC  =      -554.14098166
  PAW double counting   =      5598.62625415    -4492.17844134
  entropy T*S    EENTRO =         0.00738412
  eigenvalues    EBANDS =       136.53369195
  atomic energy  EATOM  =      6564.79586099
  Solvation  Ediel_sol  =         0.00000000
  ---------------------------------------------------
  free energy    TOTEN  =      -374.66319884 eV

  energy without entropy =     -374.67058296  energy(sigma->0) =     -374.66566021


--------------------------------------------------------------------------------------------------------




--------------------------------------- Iteration      1(   5)  ---------------------------------------


     EDDAV:  cpu time      1.3519: real time      1.3767
       DOS:  cpu time      0.0011: real time      0.0011
    CHARGE:  cpu time      0.2450: real time      0.2462
    MIXING:  cpu time      0.0053: real time      0.0054
    --------------------------------------------
      LOOP:  cpu time      1.6034: real time      1.6294

 eigenvalue-minimisations  :  3128
 total energy-change (2. order) :-0.5081677E-01  (-0.5071686E-01)
 number of electron     256.0000000 magnetization 
 augmentation part      -15.0524452 magnetization 

 Broyden mixing:
  rms(total) = 0.29548E+01    rms(broyden)= 0.29547E+01
  rms(prec ) = 0.32537E+01
  weight for this iteration     100.00

 Free energy of the ion-electron system (eV)
  ---------------------------------------------------
  alpha Z        PSCENC =       111.75598471
  Ewald energy   TEWEN  =     -7405.70011151
  -Hartree energ DENC   =      -334.36284025
  -exchange      EXHF   =         0.00000000
  -V(xc)+E(xc)   XCENC  =      -554.14098166
  PAW double counting   =      5598.62625415    -4492.17844134
  entropy T*S    EENTRO =         0.00737252
  eigenvalues    EBANDS =       136.48288678
  atomic energy  EATOM  =      6564.79586099
  Solvation  Ediel_sol  =         0.00000000
  ---------------------------------------------------
  free energy    TOTEN  =      -374.71401561 eV

  energy without entropy =     -374.72138813  energy(sigma->0) =     -374.71647312


--------------------------------------------------------------------------------------------------------




--------------------------------------- Iteration      1(   6)  ---------------------------------------


    POTLOK:  cpu time      0.0775: real time      0.0947
    SETDIJ:  cpu time      0.0681: real time      0.0682
    EDDIAG:  cpu time      0.1361: real time      0.1364
  RMM-DIIS:  cpu time      0.7247: real time      0.7272
    ORTHCH:  cpu time      0.0205: real time      0.0206
       DOS:  cpu time      0.0030: real time      0.0030
    CHARGE:  cpu time      0.2354: real time      0.2359
    MIXING:  cpu time      0.0048: real time      0.0058
    --------------------------------------------
      LOOP:  cpu time      1.2702: real time      1.2920

 eigenvalue-minimisations  :  2592
 total energy-change (2. order) : 0.5589748E+01  (-0.2887278E+00)
 number of electron     256.0000000 magnetization 
 augmentation part      -14.8780123 magnetization 

 Broyden mixing:
  rms(total) = 0.17801E+01    rms(broyden)= 0.17801E+01
  rms(prec ) = 0.19492E+01
  weight for this iteration     100.00

 eigenvalues of (default mixing * dielectric matrix)
  average eigenvalue GAMMA=   2.5097
  2.5097

 Free energy of the ion-electron system (eV)
  ---------------------------------------------------
  alpha Z        PSCENC =       111.75598471
  Ewald energy   TEWEN  =     -7405.70011151
  -Hartree energ DENC   =      -382.51649500
  -exchange      EXHF   =         0.00000000
  -V(xc)+E(xc)   XCENC  =      -546.52907149
  PAW double counting   =     12862.76644029   -11759.98965921
  entropy T*S    EENTRO =         0.02164398
  eigenvalues    EBANDS =       186.27113920
  atomic energy  EATOM  =      6564.79586099
  Solvation  Ediel_sol  =         0.00000000
  ---------------------------------------------------
  free energy    TOTEN  =      -369.12426804 eV

  energy without entropy =     -369.14591202  energy(sigma->0) =     -369.13148270


--------------------------------------------------------------------------------------------------------




--------------------------------------- Iteration      1(   7)  ---------------------------------------


    POTLOK:  cpu time      0.0772: real time      0.0931
    SETDIJ:  cpu time      0.0695: real time      0.0697
    EDDIAG:  cpu time      0.1442: real time      0.1448
  RMM-DIIS:  cpu time      0.6935: real time      0.6952
    ORTHCH:  cpu time      0.0210: real time      0.0210
       DOS:  cpu time      0.0021: real time      0.0021
    CHARGE:  cpu time      0.2360: real time      0.2366
    MIXING:  cpu time      0.0042: real time      0.0042
    --------------------------------------------
      LOOP:  cpu time      1.2477: real time      1.2668

 eigenvalue-minimisations  :  2640
 total energy-change (2. order) : 0.2473492E+01  (-0.7332528E+00)
 number of electron     256.0000000 magnetization 
 augmentation part      -14.6329955 magnetization 

 Broyden mixing:
  rms(total) = 0.10742E+00    rms(broyden)= 0.10742E+00
  rms(prec ) = 0.13546E+00
  weight for this iteration     100.00

 eigenvalues of (default mixing * dielectric matrix)
  average eigenvalue GAMMA=   2.2930
  2.2930  2.2930

 Free energy of the ion-electron system (eV)
  ---------------------------------------------------
  alpha Z        PSCENC =       111.75598471
  Ewald energy   TEWEN  =     -7405.70011151
  -Hartree energ DENC   =      -461.89186814
  -exchange      EXHF   =         0.00000000
  -V(xc)+E(xc)   XCENC  =      -533.40262254
  PAW double counting   =     30554.69282499   -29457.02945859
  entropy T*S    EENTRO =         0.02184825
  eigenvalues    EBANDS =       260.10676580
  atomic energy  EATOM  =      6564.79586099
  Solvation  Ediel_sol  =         0.00000000
  ---------------------------------------------------
  free energy    TOTEN  =      -366.65077604 eV

  energy without entropy =     -366.67262430  energy(sigma->0) =     -366.65805879


--------------------------------------------------------------------------------------------------------




--------------------------------------- Iteration      1(   8)  ---------------------------------------


    POTLOK:  cpu time      0.0742: real time      0.0887
    SETDIJ:  cpu time      0.0708: real time      0.0712
    EDDIAG:  cpu time      0.1427: real time      0.1434
  RMM-DIIS:  cpu time      0.7085: real time      0.7101
    ORTHCH:  cpu time      0.0208: real time      0.0208
       DOS:  cpu time      0.0021: real time      0.0021
    CHARGE:  cpu time      0.2377: real time      0.2383
    MIXING:  cpu time      0.0044: real time      0.0044
    --------------------------------------------
      LOOP:  cpu time      1.2612: real time      1.2792

 eigenvalue-minimisations  :  2624
 total energy-change (2. order) :-0.3833780E-01  (-0.7047047E-01)
 number of electron     256.0000000 magnetization 
 augmentation part      -14.6886320 magnetization 

 Broyden mixing:
  rms(total) = 0.52663E-01    rms(broyden)= 0.52663E-01
  rms(prec ) = 0.56432E-01
  weight for this iteration     100.00

 eigenvalues of (default mixing * dielectric matrix)
  average eigenvalue GAMMA=   2.0892
  2.5548  1.8564  1.8564

 Free energy of the ion-electron system (eV)
  ---------------------------------------------------
  alpha Z        PSCENC =       111.75598471
  Ewald energy   TEWEN  =     -7405.70011151
  -Hartree energ DENC   =      -453.42176656
  -exchange      EXHF   =         0.00000000
  -V(xc)+E(xc)   XCENC  =      -534.11203835
  PAW double counting   =     30224.10021645   -29125.43692479
  entropy T*S    EENTRO =         0.02390535
  eigenvalues    EBANDS =       251.30575986
  atomic energy  EATOM  =      6564.79586099
  Solvation  Ediel_sol  =         0.00000000
  ---------------------------------------------------
  free energy    TOTEN  =      -366.68911385 eV

  energy without entropy =     -366.71301920  energy(sigma->0) =     -366.69708230


--------------------------------------------------------------------------------------------------------




--------------------------------------- Iteration      1(   9)  ---------------------------------------


    POTLOK:  cpu time      0.0795: real time      0.0916
    SETDIJ:  cpu time      0.0680: real time      0.0681
    EDDIAG:  cpu time      0.1336: real time      0.1342
  RMM-DIIS:  cpu time      0.7107: real time      0.7125
    ORTHCH:  cpu time      0.0207: real time      0.0207
       DOS:  cpu time      0.0024: real time      0.0024
    CHARGE:  cpu time      0.2353: real time      0.2358
    MIXING:  cpu time      0.0049: real time      0.0049
    --------------------------------------------
      LOOP:  cpu time      1.2551: real time      1.2704

 eigenvalue-minimisations  :  2674
 total energy-change (2. order) :-0.2162025E-01  (-0.2063650E-01)
 number of electron     256.0000000 magnetization 
 augmentation part      -14.6756553 magnetization 

 Broyden mixing:
  rms(total) = 0.59945E-01    rms(broyden)= 0.59945E-01
  rms(prec ) = 0.67563E-01
  weight for this iteration     100.00

 eigenvalues of (default mixing * dielectric matrix)
  average eigenvalue GAMMA=   1.6818
  2.5517  1.9989  1.9989  0.1776

 Free energy of the ion-electron system (eV)
  ---------------------------------------------------
  alpha Z        PSCENC =       111.75598471
  Ewald energy   TEWEN  =     -7405.70011151
  -Hartree energ DENC   =      -456.62757483
  -exchange      EXHF   =         0.00000000
  -V(xc)+E(xc)   XCENC  =      -533.67724623
  PAW double counting   =     30639.27529055   -29540.87840408
  entropy T*S    EENTRO =         0.02345290
  eigenvalues    EBANDS =       254.32201340
  atomic energy  EATOM  =      6564.79586099
  Solvation  Ediel_sol  =         0.00000000
  ---------------------------------------------------
  free energy    TOTEN  =      -366.71073410 eV

  energy without entropy =     -366.73418700  energy(sigma->0) =     -366.71855173


--------------------------------------------------------------------------------------------------------




--------------------------------------- Iteration      1(  10)  ---------------------------------------


    POTLOK:  cpu time      0.0767: real time      0.0940
    SETDIJ:  cpu time      0.0683: real time      0.0685
    EDDIAG:  cpu time      0.1346: real time      0.1351
  RMM-DIIS:  cpu time      0.7216: real time      0.7234
    ORTHCH:  cpu time      0.0207: real time      0.0208
       DOS:  cpu time      0.0017: real time      0.0017
    CHARGE:  cpu time      0.2362: real time      0.2367
    MIXING:  cpu time      0.0043: real time      0.0043
    --------------------------------------------
      LOOP:  cpu time      1.2642: real time      1.2845

 eigenvalue-minimisations  :  2725
 total energy-change (2. order) :-0.4284175E-02  (-0.3604544E-02)
 number of electron     256.0000000 magnetization 
 augmentation part      -14.6814517 magnetization 

 Broyden mixing:
  rms(total) = 0.87046E-01    rms(broyden)= 0.87046E-01
  rms(prec ) = 0.94110E-01
  weight for this iteration     100.00

 eigenvalues of (default mixing * dielectric matrix)
  average eigenvalue GAMMA=   1.6405
  2.6921  2.2391  1.8402  0.7155  0.7155

 Free energy of the ion-electron system (eV)
  ---------------------------------------------------
  alpha Z        PSCENC =       111.75598471
  Ewald energy   TEWEN  =     -7405.70011151
  -Hartree energ DENC   =      -456.88750076
  -exchange      EXHF   =         0.00000000
  -V(xc)+E(xc)   XCENC  =      -533.64788929
  PAW double counting   =     30703.99355350   -29605.60633517
  entropy T*S    EENTRO =         0.02338976
  eigenvalues    EBANDS =       254.55802950
  atomic energy  EATOM  =      6564.79586099
  Solvation  Ediel_sol  =         0.00000000
  ---------------------------------------------------
  free energy    TOTEN  =      -366.71501827 eV

  energy without entropy =     -366.73840803  energy(sigma->0) =     -366.72281486


--------------------------------------------------------------------------------------------------------




--------------------------------------- Iteration      1(  11)  ---------------------------------------


    POTLOK:  cpu time      0.0767: real time      0.0923
    SETDIJ:  cpu time      0.0678: real time      0.0679
    EDDIAG:  cpu time      0.1351: real time      0.1358
  RMM-DIIS:  cpu time      0.6926: real time      0.6942
    ORTHCH:  cpu time      0.0205: real time      0.0206
       DOS:  cpu time      0.0016: real time      0.0016
    CHARGE:  cpu time      0.2357: real time      0.2364
    MIXING:  cpu time      0.0046: real time      0.0046
    --------------------------------------------
      LOOP:  cpu time      1.2347: real time      1.2535

 eigenvalue-minimisations  :  2592
 total energy-change (2. order) : 0.3898930E-02  (-0.1405710E-02)
 number of electron     256.0000000 magnetization 
 augmentation part      -14.6958650 magnetization 

 Broyden mixing:
  rms(total) = 0.55162E-01    rms(broyden)= 0.55162E-01
  rms(prec ) = 0.55612E-01
  weight for this iteration     100.00

 eigenvalues of (default mixing * dielectric matrix)
  average eigenvalue GAMMA=   1.5116
  2.6104  2.6104  1.3634  1.3634  0.7827  0.3391

 Free energy of the ion-electron system (eV)
  ---------------------------------------------------
  alpha Z        PSCENC =       111.75598471
  Ewald energy   TEWEN  =     -7405.70011151
  -Hartree energ DENC   =      -454.22715664
  -exchange      EXHF   =         0.00000000
  -V(xc)+E(xc)   XCENC  =      -533.84894924
  PAW double counting   =     30558.13560472   -29459.49785963
  entropy T*S    EENTRO =         0.02401264
  eigenvalues    EBANDS =       251.85149462
  atomic energy  EATOM  =      6564.79586099
  Solvation  Ediel_sol  =         0.00000000
  ---------------------------------------------------
  free energy    TOTEN  =      -366.71111934 eV

  energy without entropy =     -366.73513199  energy(sigma->0) =     -366.71912356


--------------------------------------------------------------------------------------------------------




--------------------------------------- Iteration      1(  12)  ---------------------------------------


    POTLOK:  cpu time      0.0739: real time      0.0885
    SETDIJ:  cpu time      0.0690: real time      0.0692
    EDDIAG:  cpu time      0.1352: real time      0.1357
  RMM-DIIS:  cpu time      0.6861: real time      0.6878
    ORTHCH:  cpu time      0.0206: real time      0.0206
       DOS:  cpu time      0.0016: real time      0.0016
    CHARGE:  cpu time      0.2358: real time      0.2363
    MIXING:  cpu time      0.0043: real time      0.0043
    --------------------------------------------
      LOOP:  cpu time      1.2264: real time      1.2441

 eigenvalue-minimisations  :  2604
 total energy-change (2. order) :-0.1925335E-03  (-0.1870167E-03)
 number of electron     256.0000000 magnetization 
 augmentation part      -14.6989597 magnetization 

 Broyden mixing:
  rms(total) = 0.51598E-01    rms(broyden)= 0.51598E-01
  rms(prec ) = 0.51843E-01
  weight for this iteration     100.00

 eigenvalues of (default mixing * dielectric matrix)
  average eigenvalue GAMMA=   1.4458
  2.6039  2.6039  1.7496  1.1076  0.8407  0.4680  0.7471

 Free energy of the ion-electron system (eV)
  ---------------------------------------------------
  alpha Z        PSCENC =       111.75598471
  Ewald energy   TEWEN  =     -7405.70011151
  -Hartree energ DENC   =      -454.08975045
  -exchange      EXHF   =         0.00000000
  -V(xc)+E(xc)   XCENC  =      -533.87424280
  PAW double counting   =     30474.85058790   -29376.22294463
  entropy T*S    EENTRO =         0.02402800
  eigenvalues    EBANDS =       251.74927592
  atomic energy  EATOM  =      6564.79586099
  Solvation  Ediel_sol  =         0.00000000
  ---------------------------------------------------
  free energy    TOTEN  =      -366.71131187 eV

  energy without entropy =     -366.73533987  energy(sigma->0) =     -366.71932121


--------------------------------------------------------------------------------------------------------




--------------------------------------- Iteration      1(  13)  ---------------------------------------


    POTLOK:  cpu time      0.0787: real time      0.0973
    SETDIJ:  cpu time      0.0678: real time      0.0679
    EDDIAG:  cpu time      0.1340: real time      0.1345
  RMM-DIIS:  cpu time      0.7206: real time      0.7224
    ORTHCH:  cpu time      0.0210: real time      0.0211
       DOS:  cpu time      0.0013: real time      0.0013
    CHARGE:  cpu time      0.2356: real time      0.2362
    MIXING:  cpu time      0.0043: real time      0.0043
    --------------------------------------------
      LOOP:  cpu time      1.2633: real time      1.2850

 eigenvalue-minimisations  :  2740
 total energy-change (2. order) :-0.6176999E-04  (-0.3628858E-04)
 number of electron     256.0000000 magnetization 
 augmentation part      -14.6995465 magnetization 

 Broyden mixing:
  rms(total) = 0.61204E-01    rms(broyden)= 0.61204E-01
  rms(prec ) = 0.61437E-01
  weight for this iteration     100.00

 eigenvalues of (default mixing * dielectric matrix)
  average eigenvalue GAMMA=   1.6781
  2.8552  2.8552  2.2620  2.2620  0.9554  0.8569  0.8569  0.5208

 Free energy of the ion-electron system (eV)
  ---------------------------------------------------
  alpha Z        PSCENC =       111.75598471
  Ewald energy   TEWEN  =     -7405.70011151
  -Hartree energ DENC   =      -454.14484953
  -exchange      EXHF   =         0.00000000
  -V(xc)+E(xc)   XCENC  =      -533.85934527
  PAW double counting   =     30547.48486471   -29448.85819465
  entropy T*S    EENTRO =         0.02402965
  eigenvalues    EBANDS =       251.79038724
  atomic energy  EATOM  =      6564.79586099
  Solvation  Ediel_sol  =         0.00000000
  ---------------------------------------------------
  free energy    TOTEN  =      -366.71137364 eV

  energy without entropy =     -366.73540330  energy(sigma->0) =     -366.71938353


--------------------------------------------------------------------------------------------------------




--------------------------------------- Iteration      1(  14)  ---------------------------------------


    POTLOK:  cpu time      0.0760: real time      0.0928
    SETDIJ:  cpu time      0.0695: real time      0.0701
    EDDIAG:  cpu time      0.1334: real time      0.1337
  RMM-DIIS:  cpu time      0.6939: real time      0.6956
    ORTHCH:  cpu time      0.0206: real time      0.0206
       DOS:  cpu time      0.0025: real time      0.0025
    CHARGE:  cpu time      0.2340: real time      0.2345
    MIXING:  cpu time      0.0060: real time      0.0061
    --------------------------------------------
      LOOP:  cpu time      1.2359: real time      1.2559

 eigenvalue-minimisations  :  2604
 total energy-change (2. order) :-0.2048744E-04  (-0.9186228E-05)
 number of electron     256.0000000 magnetization 
 augmentation part      -14.6995294 magnetization 

 Broyden mixing:
  rms(total) = 0.21752E-01    rms(broyden)= 0.21752E-01
  rms(prec ) = 0.21956E-01
  weight for this iteration     100.00

 eigenvalues of (default mixing * dielectric matrix)
  average eigenvalue GAMMA=   1.4974
  2.5989  2.5989  2.3514  2.0989  0.9602  0.9602  0.8933  0.5073  0.5073

 Free energy of the ion-electron system (eV)
  ---------------------------------------------------
  alpha Z        PSCENC =       111.75598471
  Ewald energy   TEWEN  =     -7405.70011151
  -Hartree energ DENC   =      -454.00535176
  -exchange      EXHF   =         0.00000000
  -V(xc)+E(xc)   XCENC  =      -533.90049068
  PAW double counting   =     30234.46166652   -29135.85608654
  entropy T*S    EENTRO =         0.02403256
  eigenvalues    EBANDS =       251.71310157
  atomic energy  EATOM  =      6564.79586099
  Solvation  Ediel_sol  =         0.00000000
  ---------------------------------------------------
  free energy    TOTEN  =      -366.71139413 eV

  energy without entropy =     -366.73542669  energy(sigma->0) =     -366.71940498


--------------------------------------------------------------------------------------------------------




--------------------------------------- Iteration      1(  15)  ---------------------------------------


    POTLOK:  cpu time      0.0726: real time      0.0882
    SETDIJ:  cpu time      0.0718: real time      0.0723
    EDDIAG:  cpu time      0.1331: real time      0.1335
  RMM-DIIS:  cpu time      0.7018: real time      0.7034
    ORTHCH:  cpu time      0.0210: real time      0.0210
       DOS:  cpu time      0.0013: real time      0.0013
    CHARGE:  cpu time      0.2348: real time      0.2355
    MIXING:  cpu time      0.0051: real time      0.0051
    --------------------------------------------
      LOOP:  cpu time      1.2415: real time      1.2603

 eigenvalue-minimisations  :  2633
 total energy-change (2. order) :-0.3602007E-04  (-0.3123466E-05)
 number of electron     256.0000000 magnetization 
 augmentation part      -14.6997419 magnetization 

 Broyden mixing:
  rms(total) = 0.16493E-01    rms(broyden)= 0.16493E-01
  rms(prec ) = 0.16631E-01
  weight for this iteration     100.00

 eigenvalues of (default mixing * dielectric matrix)
  average eigenvalue GAMMA=   1.4695
  2.7139  2.7139  2.2557  1.9181  0.8537  0.8537  0.9989  0.9989  0.8597  0.5284

 Free energy of the ion-electron system (eV)
  ---------------------------------------------------
  alpha Z        PSCENC =       111.75598471
  Ewald energy   TEWEN  =     -7405.70011151
  -Hartree energ DENC   =      -453.99368863
  -exchange      EXHF   =         0.00000000
  -V(xc)+E(xc)   XCENC  =      -533.89785016
  PAW double counting   =     30219.72020102   -29121.11229702
  entropy T*S    EENTRO =         0.02404967
  eigenvalues    EBANDS =       251.69642076
  atomic energy  EATOM  =      6564.79586099
  Solvation  Ediel_sol  =         0.00000000
  ---------------------------------------------------
  free energy    TOTEN  =      -366.71143015 eV

  energy without entropy =     -366.73547983  energy(sigma->0) =     -366.71944671


--------------------------------------------------------------------------------------------------------




--------------------------------------- Iteration      1(  16)  ---------------------------------------


    POTLOK:  cpu time      0.0739: real time      0.0900
    SETDIJ:  cpu time      0.0727: real time      0.0732
    EDDIAG:  cpu time      0.1374: real time      0.1377
  RMM-DIIS:  cpu time      0.6909: real time      0.6926
    ORTHCH:  cpu time      0.0205: real time      0.0206
       DOS:  cpu time      0.0028: real time      0.0028
    CHARGE:  cpu time      0.2365: real time      0.2370
    MIXING:  cpu time      0.0055: real time      0.0056
    --------------------------------------------
      LOOP:  cpu time      1.2403: real time      1.2594

 eigenvalue-minimisations  :  2592
 total energy-change (2. order) :-0.2204212E-04  (-0.1901053E-05)
 number of electron     256.0000000 magnetization 
 augmentation part      -14.6994797 magnetization 

 Broyden mixing:
  rms(total) = 0.82343E-02    rms(broyden)= 0.82343E-02
  rms(prec ) = 0.82863E-02
  weight for this iteration     100.00

 eigenvalues of (default mixing * dielectric matrix)
  average eigenvalue GAMMA=   1.3734
  2.7050  2.7050  2.2887  1.8595  1.0126  1.0126  0.8719  0.8719  0.8667  0.5320
  0.3818

 Free energy of the ion-electron system (eV)
  ---------------------------------------------------
  alpha Z        PSCENC =       111.75598471
  Ewald energy   TEWEN  =     -7405.70011151
  -Hartree energ DENC   =      -454.07358138
  -exchange      EXHF   =         0.00000000
  -V(xc)+E(xc)   XCENC  =      -533.89110697
  PAW double counting   =     30188.64078210   -29090.03454519
  entropy T*S    EENTRO =         0.02405677
  eigenvalues    EBANDS =       251.77120829
  atomic energy  EATOM  =      6564.79586099
  Solvation  Ediel_sol  =         0.00000000
  ---------------------------------------------------
  free energy    TOTEN  =      -366.71145219 eV

  energy without entropy =     -366.73550896  energy(sigma->0) =     -366.71947112


--------------------------------------------------------------------------------------------------------




--------------------------------------- Iteration      1(  17)  ---------------------------------------


    POTLOK:  cpu time      0.0756: real time      0.0906
    SETDIJ:  cpu time      0.0691: real time      0.0697
    EDDIAG:  cpu time      0.1354: real time      0.1357
  RMM-DIIS:  cpu time      0.6378: real time      0.6394
    ORTHCH:  cpu time      0.0206: real time      0.0207
       DOS:  cpu time      0.0030: real time      0.0030
    CHARGE:  cpu time      0.2374: real time      0.2380
    MIXING:  cpu time      0.0058: real time      0.0058
    --------------------------------------------
      LOOP:  cpu time      1.1847: real time      1.2029

 eigenvalue-minimisations  :  2385
 total energy-change (2. order) :-0.3236589E-05  (-0.6341392E-06)
 number of electron     256.0000000 magnetization 
 augmentation part      -14.6992678 magnetization 

 Broyden mixing:
  rms(total) = 0.19364E-02    rms(broyden)= 0.19364E-02
  rms(prec ) = 0.19614E-02
  weight for this iteration     100.00

 eigenvalues of (default mixing * dielectric matrix)
  average eigenvalue GAMMA=   1.6941
  2.4963  2.4963  2.8023  2.8023  2.4989  2.0012  1.0150  1.0150  0.9266  0.8676
  0.8676  0.5394

 Free energy of the ion-electron system (eV)
  ---------------------------------------------------
  alpha Z        PSCENC =       111.75598471
  Ewald energy   TEWEN  =     -7405.70011151
  -Hartree energ DENC   =      -454.10242979
  -exchange      EXHF   =         0.00000000
  -V(xc)+E(xc)   XCENC  =      -533.89176772
  PAW double counting   =     30151.13031981   -29052.52437589
  entropy T*S    EENTRO =         0.02405953
  eigenvalues    EBANDS =       251.80100443
  atomic energy  EATOM  =      6564.79586099
  Solvation  Ediel_sol  =         0.00000000
  ---------------------------------------------------
  free energy    TOTEN  =      -366.71145543 eV

  energy without entropy =     -366.73551496  energy(sigma->0) =     -366.71947527


--------------------------------------------------------------------------------------------------------




--------------------------------------- Iteration      1(  18)  ---------------------------------------


    POTLOK:  cpu time      0.0768: real time      0.0902
    SETDIJ:  cpu time      0.0723: real time      0.0726
    EDDIAG:  cpu time      0.1347: real time      0.1350
  RMM-DIIS:  cpu time      0.4779: real time      0.4791
    ORTHCH:  cpu time      0.0211: real time      0.0212
       DOS:  cpu time      0.0013: real time      0.0013
    --------------------------------------------
      LOOP:  cpu time      0.7840: real time      0.7994

 eigenvalue-minimisations  :  1577
 total energy-change (2. order) :-0.2844736E-06  (-0.1084702E-06)
 number of electron     256.0000000 magnetization 
 augmentation part      -14.6992678 magnetization 

 Free energy of the ion-electron system (eV)
  ---------------------------------------------------
  alpha Z        PSCENC =       111.75598471
  Ewald energy   TEWEN  =     -7405.70011151
  -Hartree energ DENC   =      -454.11718227
  -exchange      EXHF   =         0.00000000
  -V(xc)+E(xc)   XCENC  =      -533.89161572
  PAW double counting   =     30139.41054313   -29040.80485523
  entropy T*S    EENTRO =         0.02405886
  eigenvalues    EBANDS =       251.81586132
  atomic energy  EATOM  =      6564.79586099
  Solvation  Ediel_sol  =         0.00000000
  ---------------------------------------------------
  free energy    TOTEN  =      -366.71145572 eV

  energy without entropy =     -366.73551458  energy(sigma->0) =     -366.71947534


--------------------------------------------------------------------------------------------------------




 average (electrostatic) potential at core
  the test charge radii are     0.9892
  (the norm of the test charge is              1.0000)
       1 -82.6046       2 -82.6046       3 -82.6046       4 -82.6046       5 -82.6046
       6 -82.6046       7 -82.6046       8 -82.6046       9 -82.6046      10 -82.6046
      11 -82.6046      12 -82.6046      13 -82.6046      14 -82.6046      15 -82.6046
      16 -82.6046      17 -82.6046      18 -82.6046      19 -82.6046      20 -82.6046
      21 -82.6046      22 -82.6046      23 -82.6046      24 -82.6046      25 -82.6046
      26 -82.6046      27 -82.6046      28 -82.6046      29 -82.6046      30 -82.6046
      31 -82.6046      32 -82.6046      33 -82.6046      34 -82.6046      35 -82.6046
      36 -82.6046      37 -82.6046      38 -82.6046      39 -82.6046      40 -82.6046
      41 -82.6046      42 -82.6046      43 -82.6046      44 -82.6046      45 -82.6046
      46 -82.6046      47 -82.6046      48 -82.6046      49 -82.6046      50 -82.6046
      51 -82.6046      52 -82.6046      53 -82.6046      54 -82.6046      55 -82.6046
      56 -82.6046      57 -82.6046      58 -82.6046      59 -82.6046      60 -82.6046
      61 -82.6046      62 -82.6046      63 -82.6046      64 -82.6046
 
 
 
 E-fermi :   6.3957     XC(G=0):  -9.6986     alpha+bet :-12.4413

 val. band max:        6.2850175087   @ k =   0.0000   0.0000   0.0000
 cond. band min:       6.4986265655   @ k =   0.5000  -0.0000   0.0000
 fundamental gap:      0.2136090568
 Fermi energy:         6.3956713709

 k-point     1 :       0.0000    0.0000    0.0000
  band No.  band energies     occupation 
      1      -6.0750      2.00000
      2      -4.9664      2.00000
      3      -4.9664      2.00000
      4      -4.9656      2.00000
      5      -4.9656      2.00000
      6      -4.9265      2.00000
      7      -4.9265      2.00000
      8      -3.9986      2.00000
      9      -3.9986      2.00000
     10      -3.9663      2.00000
     11      -3.9663      2.00000
     12      -3.9663      2.00000
     13      -3.9663      2.00000
     14      -3.9382      2.00000
     15      -3.9382      2.00000
     16      -3.9382      2.00000
     17      -3.9382      2.00000
     18      -3.8758      2.00000
     19      -3.8758      2.00000
     20      -3.6960      2.00000
     21      -3.6960      2.00000
     22      -3.5554      2.00000
     23      -3.5554      2.00000
     24      -1.8983      2.00000
     25      -1.8150      2.00000
     26      -1.8150      2.00000
     27      -1.7356      2.00000
     28      -1.7067      2.00000
     29      -1.7067      2.00000
     30      -1.6883      2.00000
     31      -1.6883      2.00000
     32      -1.6641      2.00000
     33      -1.6641      2.00000
     34      -1.5714      2.00000
     35      -1.5714      2.00000
     36      -1.5714      2.00000
     37      -1.5714      2.00000
     38      -1.5189      2.00000
     39      -1.5189      2.00000
     40      -1.4789      2.00000
     41      -1.4788      2.00000
     42      -1.0310      2.00000
     43      -1.0310      2.00000
     44      -1.0044      2.00000
     45      -1.0044      2.00000
     46       0.5548      2.00000
     47       0.5548      2.00000
     48       0.5916      2.00000
     49       0.5916      2.00000
     50       0.5916      2.00000
     51       0.5916      2.00000
     52       0.6253      2.00000
     53       0.6253      2.00000
     54       0.6683      2.00000
     55       0.6683      2.00000
     56       0.6683      2.00000
     57       0.6683      2.00000
     58       2.0997      2.00000
     59       2.0997      2.00000
     60       2.1029      2.00000
     61       2.1029      2.00000
     62       2.1129      2.00000
     63       2.1129      2.00000
     64       2.1167      2.00000
     65       2.1167      2.00000
     66       2.1167      2.00000
     67       2.1167      2.00000
     68       2.1181      2.00000
     69       2.1181      2.00000
     70       2.1672      2.00000
     71       2.1672      2.00000
     72       2.1915      2.00000
     73       2.1915      2.00000
     74       2.1915      2.00000
     75       2.1915      2.00000
     76       2.2132      2.00000
     77       2.2132      2.00000
     78       2.3079      2.00000
     79       2.3079      2.00000
     80       2.3079      2.00000
     81       2.3079      2.00000
     82       2.6142      2.00000
     83       2.6142      2.00000
     84       2.6203      2.00000
     85       2.6203      2.00000
     86       2.7663      2.00000
     87       2.7664      2.00000
     88       3.1018      2.00000
     89       3.1018      2.00000
     90       3.1479      2.00000
     91       3.2623      2.00000
     92       3.2623      2.00000
     93       3.3786      2.00000
     94       4.1191      2.00000
     95       4.1191      2.00000
     96       4.1193      2.00000
     97       4.1193      2.00000
     98       4.1419      2.00000
     99       4.1419      2.00000
    100       4.2209      2.00000
    101       4.2209      2.00000
    102       4.2655      2.00000
    103       4.2655      2.00000
    104       4.3495      2.00000
    105       4.3495      2.00000
    106       4.6930      2.00000
    107       4.6930      2.00000
    108       4.6930      2.00000
    109       4.6930      2.00000
    110       4.7946      2.00000
    111       4.7946      2.00000
    112       4.8032      2.00000
    113       4.8032      2.00000
    114       4.8562      2.00000
    115       4.8562      2.00000
    116       4.8562      2.00000
    117       4.8562      2.00000
    118       4.9001      2.00000
    119       4.9001      2.00000
    120       4.9137      2.00000
    121       4.9137      2.00000
    122       4.9977      2.00000
    123       4.9977      2.00000
    124       5.0940      2.00000
    125       5.0940      2.00000
    126       6.1307      2.06823
    127       6.1326      2.06869
    128       6.2850      1.79588
    129       6.5850     -0.03732
    130       6.5850     -0.03732
    131       6.6300     -0.06998
    132       6.7497     -0.03121
    133       6.7497     -0.03121
    134       6.8733     -0.00376
    135       7.0718     -0.00002
    136       7.0718     -0.00002
    137       7.2350     -0.00000
    138       7.2350     -0.00000
    139       7.2363     -0.00000
    140       7.2363     -0.00000
    141       7.6716     -0.00000
    142       7.6716     -0.00000
    143       7.8526     -0.00000
    144       7.8526     -0.00000
    145       8.4346     -0.00000
    146       8.4347     -0.00000
    147       8.4349     -0.00000
    148       8.4350     -0.00000
    149       8.5402     -0.00000
    150       8.5597     -0.00000
    151       8.5605     -0.00000
    152       8.6266     -0.00000
    153       8.6268     -0.00000
    154       8.6272     -0.00000
    155       8.6292     -0.00000
    156       8.7021     -0.00000
    157       8.7031     -0.00000
    158       8.7044     -0.00000
    159       8.8800     -0.00000
    160       9.2000     -0.00000
    161       9.2229     -0.00000
    162       9.2939     -0.00000

 k-point     2 :       0.5000   -0.0000    0.0000
  band No.  band energies     occupation 
      1      -5.7852      2.00000
      2      -5.7852      2.00000
      3      -4.7316      2.00000
      4      -4.7316      2.00000
      5      -4.7017      2.00000
      6      -4.7017      2.00000
      7      -4.7017      2.00000
      8      -4.7017      2.00000
      9      -4.6701      2.00000
     10      -4.6701      2.00000
     11      -3.8573      2.00000
     12      -3.8573      2.00000
     13      -3.8573      2.00000
     14      -3.8573      2.00000
     15      -3.7733      2.00000
     16      -3.7733      2.00000
     17      -3.7733      2.00000
     18      -3.7733      2.00000
     19      -3.5355      2.00000
     20      -3.5355      2.00000
     21      -2.8856      2.00000
     22      -2.8856      2.00000
     23      -2.7986      2.00000
     24      -2.7986      2.00000
     25      -2.7986      2.00000
     26      -2.7986      2.00000
     27      -2.7090      2.00000
     28      -2.7090      2.00000
     29      -1.8096      2.00000
     30      -1.8096      2.00000
     31      -1.7789      2.00000
     32      -1.7789      2.00000
     33      -1.6602      2.00000
     34      -1.6602      2.00000
     35      -1.6329      2.00000
     36      -1.6329      2.00000
     37      -0.5673      2.00000
     38      -0.5673      2.00000
     39      -0.5010      2.00000
     40      -0.5010      2.00000
     41      -0.5010      2.00000
     42      -0.5010      2.00000
     43      -0.4405      2.00000
     44      -0.4405      2.00000
     45      -0.3639      2.00000
     46      -0.3639      2.00000
     47      -0.3639      2.00000
     48      -0.3639      2.00000
     49      -0.3449      2.00000
     50      -0.3449      2.00000
     51      -0.3449      2.00000
     52      -0.3449      2.00000
     53       0.4776      2.00000
     54       0.4776      2.00000
     55       1.6794      2.00000
     56       1.6794      2.00000
     57       1.6813      2.00000
     58       1.6813      2.00000
     59       1.6813      2.00000
     60       1.6813      2.00000
     61       1.6834      2.00000
     62       1.6834      2.00000
     63       1.7976      2.00000
     64       1.7976      2.00000
     65       1.8170      2.00000
     66       1.8170      2.00000
     67       1.8170      2.00000
     68       1.8170      2.00000
     69       1.8441      2.00000
     70       1.8441      2.00000
     71       2.5371      2.00000
     72       2.5371      2.00000
     73       2.5829      2.00000
     74       2.5829      2.00000
     75       2.6200      2.00000
     76       2.6200      2.00000
     77       2.6679      2.00000
     78       2.6679      2.00000
     79       3.2745      2.00000
     80       3.2745      2.00000
     81       3.3190      2.00000
     82       3.3190      2.00000
     83       3.3190      2.00000
     84       3.3190      2.00000
     85       3.3536      2.00000
     86       3.3536      2.00000
     87       3.3610      2.00000
     88       3.3610      2.00000
     89       3.3617      2.00000
     90       3.3617      2.00000
     91       3.4994      2.00000
     92       3.4994      2.00000
     93       3.5385      2.00000
     94       3.5385      2.00000
     95       3.5385      2.00000
     96       3.5385      2.00000
     97       3.5762      2.00000
     98       3.5762      2.00000
     99       3.6684      2.00000
    100       3.6684      2.00000
    101       3.6684      2.00000
    102       3.6684      2.00000
    103       3.7731      2.00000
    104       3.7731      2.00000
    105       3.7731      2.00000
    106       3.7731      2.00000
    107       4.7102      2.00000
    108       4.7102      2.00000
    109       4.7102      2.00000
    110       4.7102      2.00000
    111       4.7138      2.00000
    112       4.7138      2.00000
    113       4.7144      2.00000
    114       4.7144      2.00000
    115       4.7318      2.00000
    116       4.7318      2.00000
    117       4.7318      2.00000
    118       4.7318      2.00000
    119       4.8019      2.00000
    120       4.8019      2.00000
    121       4.8019      2.00000
    122       4.8019      2.00000
    123       4.9627      2.00000
    124       4.9627      2.00000
    125       5.2672      2.00000
    126       5.2672      2.00000
    127       5.2730      2.00000
    128       5.2730      2.00000
    129       6.4986      0.24379
    130       6.4986      0.24379
    131       7.4749     -0.00000
    132       7.4749     -0.00000
    133       7.9732     -0.00000
    134       7.9732     -0.00000
    135       8.0450     -0.00000
    136       8.0451     -0.00000
    137       8.1186     -0.00000
    138       8.1187     -0.00000
    139       8.1424     -0.00000
    140       8.1425     -0.00000
    141       8.2909     -0.00000
    142       8.2913     -0.00000
    143       8.3780     -0.00000
    144       8.3782     -0.00000
    145       8.3788     -0.00000
    146       8.3807     -0.00000
    147       8.4878     -0.00000
    148       8.4882     -0.00000
    149       8.4894     -0.00000
    150       8.4931     -0.00000
    151       8.5769     -0.00000
    152       8.5820     -0.00000
    153       8.6458     -0.00000
    154       8.6476     -0.00000
    155       8.6570     -0.00000
    156       8.6810     -0.00000
    157       8.7373     -0.00000
    158       8.7724     -0.00000
    159       8.8668     -0.00000
    160       8.8902     -0.00000
    161       8.9619     -0.00000
    162       8.9841     -0.00000

 k-point     3 :       0.0000    0.5000    0.0000
  band No.  band energies     occupation 
[...]
  0.000   0.000   4.172   0.000   0.000   7.772   0.000   0.000
 -0.001  -0.002   0.000   4.172   0.000   0.000   7.772   0.000
  0.000   0.000   0.000   0.000   4.172   0.000   0.000   7.772
  0.000   0.000   7.772   0.000   0.000  14.490   0.000   0.000
 -0.002  -0.003   0.000   7.772   0.000   0.000  14.490   0.000
  0.000   0.000   0.000   0.000   7.772   0.000   0.000  14.490
 total augmentation occupancy for first ion, spin component:           1
  6.243  -2.454  -0.000   0.053   0.000   0.000  -0.020   0.000
 -2.454   1.074   0.000  -0.027   0.000  -0.000   0.010   0.000
 -0.000   0.000   3.088  -0.000   0.006  -0.702   0.000   0.001
  0.053  -0.027  -0.000   3.089   0.000   0.000  -0.703   0.000
  0.000   0.000   0.006   0.000   3.048   0.001  -0.000  -0.687
  0.000  -0.000  -0.702   0.000   0.001   0.169  -0.000  -0.001
 -0.020   0.010   0.000  -0.703  -0.000  -0.000   0.169   0.000
  0.000   0.000   0.001   0.000  -0.687  -0.001   0.000   0.164


------------------------ aborting loop because EDIFF is reached ----------------------------------------


    CHARGE:  cpu time      0.2426: real time      0.2432
    FORLOC:  cpu time      0.0207: real time      0.0207
    FORNL :  cpu time      0.6664: real time      0.6685
    STRESS:  cpu time      2.0696: real time      2.0751
    FORCOR:  cpu time      0.0858: real time      0.0860
    FORHAR:  cpu time      0.0348: real time      0.0349
    MIXING:  cpu time      0.0225: real time      0.0226
    OFIELD:  cpu time      0.0000: real time      0.0000

  FORCE on cell =-STRESS in cart. coord.  units (eV):
  Direction    XX          YY          ZZ          XY          YZ          ZX
  --------------------------------------------------------------------------------------
  Alpha Z   111.75598   111.75598   111.75598
  Ewald   -2514.60098 -2446.02519 -2445.86848    13.62049    -0.00000    -0.00000
  Hartree   143.83392   154.99339   154.76676     8.89165    -0.00000    -0.00000
  E(xc)    -824.63221  -825.24968  -825.26886    -0.07579    -0.00000    -0.00000
  Local    -857.94628  -940.53605  -940.44795   -24.33198    -0.00000    -0.00000
  n-local  2500.89340  2511.22326  2511.51883     0.39014    -0.00000     0.00000
  augment  -369.05702  -369.08937  -369.09781    -0.70888     0.00000     0.00000
  Kinetic  1850.11954  1830.51740  1830.06704    13.96745    -0.00000    -0.00000
  Fock        0.00000     0.00000     0.00000     0.00000     0.00000     0.00000
  -------------------------------------------------------------------------------------
  Total      40.36636    27.58976    27.42552    11.75308     0.00000     0.00000
  in kB      52.41873    35.82736    35.61409    15.26225     0.00000     0.00000
  external pressure =       41.29 kB  Pullay stress =        0.00 kB


 VOLUME and BASIS-vectors are now :
 -----------------------------------------------------------------------------
  energy-cutoff  :      400.00
  volume of cell :     1233.80
      direct lattice vectors                 reciprocal lattice vectors
    10.582299563 -0.107983016  0.000000000     0.094507063  0.000945074  0.000000000
    -0.107983016 10.798264595  0.000000000     0.000945074  0.092616924  0.000000000
     0.000000000  0.000000000 10.798264595     0.000000000  0.000000000  0.092607473

  length of vectors
    10.582850484 10.798804498 10.798264595     0.094511788  0.092621746  0.092607473


 FORCES acting on ions
    electron-ion (+dipol)            ewald-force                    non-local-force                 convergence-correction
 -----------------------------------------------------------------------------------------------
   0.166E-08 0.749E-09 0.169E+01   -.104E-13 0.666E-14 -.120E+01   -.243E-21 -.143E-19 -.489E+00   0.205E-13 -.819E-13 -.182E-04
   0.166E-08 0.749E-09 0.169E+01   -.266E-14 0.155E-13 -.120E+01   -.517E-21 -.175E-19 -.489E+00   -.306E-13 -.253E-13 -.182E-04
   0.166E-08 0.749E-09 0.169E+01   -.107E-13 0.577E-14 -.120E+01   -.165E-21 0.241E-19 -.489E+00   -.164E-13 0.803E-13 -.182E-04
   0.166E-08 0.749E-09 0.169E+01   -.711E-14 0.111E-13 -.120E+01   0.171E-21 -.559E-20 -.489E+00   0.674E-14 0.961E-14 -.182E-04
   0.166E-08 0.749E-09 0.169E+01   -.822E-14 0.977E-14 -.120E+01   0.142E-20 0.220E-19 -.489E+00   -.363E-13 -.372E-13 -.182E-04
   0.166E-08 0.749E-09 0.169E+01   0.138E-13 0.169E-13 -.120E+01   0.297E-21 -.101E-19 -.489E+00   0.367E-13 -.206E-13 -.182E-04
   0.166E-08 0.749E-09 0.169E+01   -.444E-14 -.133E-14 -.120E+01   0.392E-21 -.248E-19 -.489E+00   0.198E-13 0.307E-13 -.182E-04
   0.166E-08 0.749E-09 0.169E+01   -.355E-14 0.107E-13 -.120E+01   -.363E-20 -.151E-19 -.489E+00   -.126E-13 0.107E-13 -.182E-04
   0.460E-09 0.899E-09 -.169E+01   -.160E-13 -.178E-14 0.120E+01   -.397E-20 0.244E-19 0.489E+00   0.373E-13 -.420E-13 0.182E-04
   0.460E-09 0.899E-09 -.169E+01   -.142E-13 0.178E-14 0.120E+01   -.117E-20 -.109E-20 0.489E+00   -.147E-13 0.220E-13 0.182E-04
   0.460E-09 0.898E-09 -.169E+01   -.262E-13 0.000E+00 0.120E+01   0.145E-21 -.394E-19 0.489E+00   -.803E-13 0.316E-13 0.182E-04
   0.460E-09 0.898E-09 -.169E+01   -.711E-14 -.178E-14 0.120E+01   -.581E-21 0.729E-20 0.489E+00   0.622E-13 -.200E-13 0.182E-04
   0.460E-09 0.898E-09 -.169E+01   -.977E-14 0.355E-14 0.120E+01   0.277E-21 -.305E-19 0.489E+00   -.516E-13 -.723E-13 0.182E-04
   0.460E-09 0.898E-09 -.169E+01   -.888E-14 -.711E-14 0.120E+01   0.542E-21 -.507E-22 0.489E+00   0.972E-14 0.405E-13 0.182E-04
   0.460E-09 0.899E-09 -.169E+01   -.133E-13 0.444E-15 0.120E+01   -.335E-20 0.960E-20 0.489E+00   0.749E-13 0.566E-13 0.182E-04
   0.460E-09 0.899E-09 -.169E+01   -.160E-13 0.000E+00 0.120E+01   0.216E-21 0.168E-19 0.489E+00   -.660E-13 -.352E-13 0.182E-04
   0.166E-08 0.749E-09 0.169E+01   -.122E-13 0.910E-14 -.120E+01   -.345E-20 0.140E-19 -.489E+00   -.242E-13 -.835E-13 -.182E-04
   0.166E-08 0.749E-09 0.169E+01   -.191E-13 0.577E-14 -.120E+01   -.212E-21 -.749E-20 -.489E+00   0.239E-13 -.481E-13 -.182E-04
   0.166E-08 0.749E-09 0.169E+01   -.204E-13 0.218E-13 -.120E+01   -.450E-20 0.914E-20 -.489E+00   0.737E-13 0.778E-13 -.182E-04
   0.166E-08 0.749E-09 0.169E+01   -.133E-13 0.147E-13 -.120E+01   0.705E-20 0.173E-19 -.489E+00   -.910E-13 0.480E-13 -.182E-04
   0.166E-08 0.749E-09 0.169E+01   -.120E-13 0.124E-13 -.120E+01   -.526E-20 0.125E-19 -.489E+00   0.144E-13 -.227E-13 -.182E-04
   0.166E-08 0.749E-09 0.169E+01   -.222E-14 0.160E-13 -.120E+01   0.904E-20 0.240E-19 -.489E+00   -.212E-13 -.332E-13 -.182E-04
   0.166E-08 0.749E-09 0.169E+01   -.133E-13 0.102E-13 -.120E+01   -.499E-20 0.455E-20 -.489E+00   -.779E-13 0.261E-13 -.182E-04
   0.166E-08 0.748E-09 0.169E+01   -.107E-13 0.107E-13 -.120E+01   -.132E-20 -.367E-21 -.489E+00   0.910E-13 0.447E-13 -.182E-04
   0.460E-09 0.899E-09 -.169E+01   -.280E-13 -.197E-14 0.120E+01   0.531E-20 0.749E-20 0.489E+00   -.406E-14 -.124E-13 0.182E-04
   0.460E-09 0.898E-09 -.169E+01   -.244E-13 0.602E-14 0.120E+01   -.202E-20 -.284E-19 0.489E+00   -.521E-14 -.603E-13 0.182E-04
   0.460E-09 0.898E-09 -.169E+01   -.249E-13 -.307E-14 0.120E+01   -.361E-20 -.105E-19 0.489E+00   -.600E-13 0.271E-13 0.182E-04
   0.460E-09 0.898E-09 -.169E+01   -.249E-13 0.114E-13 0.120E+01   -.351E-20 0.103E-19 0.489E+00   0.738E-13 0.737E-13 0.182E-04
   0.460E-09 0.897E-09 -.169E+01   -.364E-13 -.148E-14 0.120E+01   -.353E-20 -.231E-19 0.489E+00   -.163E-14 0.294E-14 0.182E-04
   0.460E-09 0.899E-09 -.169E+01   -.293E-13 0.251E-14 0.120E+01   -.324E-20 -.125E-19 0.489E+00   0.636E-14 -.148E-12 0.182E-04
   0.460E-09 0.898E-09 -.169E+01   -.213E-13 -.102E-13 0.120E+01   0.600E-20 -.557E-20 0.489E+00   0.536E-13 -.314E-14 0.182E-04
   0.460E-09 0.899E-09 -.169E+01   -.355E-13 0.111E-13 0.120E+01   -.179E-20 -.249E-19 0.489E+00   -.729E-13 0.161E-12 0.182E-04
   0.166E-08 0.749E-09 0.169E+01   0.222E-13 0.311E-14 -.120E+01   0.700E-20 -.414E-20 -.489E+00   -.430E-13 0.144E-13 -.182E-04
   0.166E-08 0.749E-09 0.169E+01   0.160E-13 0.222E-14 -.120E+01   -.320E-20 -.110E-19 -.489E+00   0.144E-13 -.874E-13 -.182E-04
   0.166E-08 0.749E-09 0.169E+01   0.187E-13 -.109E-13 -.120E+01   -.327E-20 -.736E-20 -.489E+00   0.790E-14 -.226E-13 -.182E-04
   0.166E-08 0.749E-09 0.169E+01   0.187E-13 -.311E-14 -.120E+01   -.272E-20 -.193E-19 -.489E+00   0.313E-13 0.774E-13 -.182E-04
   0.166E-08 0.749E-09 0.169E+01   0.213E-13 -.133E-14 -.120E+01   -.346E-20 -.757E-20 -.489E+00   0.573E-13 0.112E-12 -.182E-04
   0.166E-08 0.749E-09 0.169E+01   0.266E-13 -.888E-14 -.120E+01   -.367E-20 0.687E-20 -.489E+00   -.203E-13 -.202E-12 -.182E-04
   0.166E-08 0.749E-09 0.169E+01   0.195E-13 -.400E-14 -.120E+01   0.674E-20 -.106E-19 -.489E+00   -.528E-14 -.112E-12 -.182E-04
   0.166E-08 0.749E-09 0.169E+01   0.284E-13 -.107E-13 -.120E+01   0.298E-20 0.456E-21 -.489E+00   -.230E-13 0.186E-12 -.182E-04
   0.460E-09 0.899E-09 -.169E+01   0.219E-13 -.844E-14 0.120E+01   -.355E-20 -.119E-19 0.489E+00   -.243E-13 -.493E-13 0.182E-04
   0.460E-09 0.898E-09 -.169E+01   0.749E-14 -.120E-13 0.120E+01   -.232E-21 0.668E-20 0.489E+00   0.551E-13 0.181E-13 0.182E-04
   0.460E-09 0.899E-09 -.169E+01   0.117E-13 -.444E-14 0.120E+01   -.256E-21 0.742E-20 0.489E+00   0.520E-14 0.481E-13 0.182E-04
   0.460E-09 0.899E-09 -.169E+01   0.259E-13 -.115E-13 0.120E+01   0.368E-20 0.201E-19 0.489E+00   -.428E-13 -.306E-13 0.182E-04
   0.460E-09 0.900E-09 -.169E+01   0.124E-13 -.533E-14 0.120E+01   0.300E-21 0.414E-20 0.489E+00   0.186E-13 -.107E-12 0.182E-04
   0.460E-09 0.899E-09 -.169E+01   0.106E-13 -.124E-13 0.120E+01   0.348E-20 0.169E-19 0.489E+00   -.518E-13 0.988E-13 0.182E-04
   0.460E-09 0.898E-09 -.169E+01   0.111E-13 -.533E-14 0.120E+01   -.337E-20 0.394E-21 0.489E+00   0.231E-14 0.100E-12 0.182E-04
   0.460E-09 0.899E-09 -.169E+01   0.884E-14 -.124E-13 0.120E+01   -.391E-21 0.225E-19 0.489E+00   0.287E-13 -.106E-12 0.182E-04
   0.166E-08 0.749E-09 0.169E+01   0.231E-13 0.555E-14 -.120E+01   -.516E-21 0.208E-19 -.489E+00   0.480E-13 -.568E-13 -.182E-04
   0.166E-08 0.749E-09 0.169E+01   0.111E-13 -.444E-15 -.120E+01   -.331E-20 -.427E-21 -.489E+00   -.187E-13 -.372E-13 -.182E-04
   0.166E-08 0.749E-09 0.169E+01   0.209E-13 0.400E-14 -.120E+01   -.188E-21 -.916E-20 -.489E+00   -.131E-14 0.560E-13 -.182E-04
   0.166E-08 0.749E-09 0.169E+01   0.142E-13 -.400E-14 -.120E+01   0.694E-21 -.102E-19 -.489E+00   -.164E-13 0.426E-13 -.182E-04
   0.166E-08 0.750E-09 0.169E+01   0.191E-13 0.666E-14 -.120E+01   0.511E-21 -.151E-19 -.489E+00   -.379E-13 -.117E-13 -.182E-04
   0.166E-08 0.748E-09 0.169E+01   0.111E-13 0.622E-14 -.120E+01   0.347E-20 0.257E-20 -.489E+00   0.157E-13 -.765E-13 -.182E-04
   0.166E-08 0.748E-09 0.169E+01   0.187E-13 0.488E-14 -.120E+01   -.179E-20 0.440E-20 -.489E+00   0.874E-14 0.101E-13 -.182E-04
   0.166E-08 0.749E-09 0.169E+01   0.107E-13 0.355E-14 -.120E+01   -.201E-21 0.241E-19 -.489E+00   0.212E-13 0.884E-13 -.182E-04
   0.460E-09 0.898E-09 -.169E+01   0.858E-14 -.132E-13 0.120E+01   -.330E-20 -.123E-19 0.489E+00   0.218E-14 -.671E-13 0.182E-04
   0.460E-09 0.898E-09 -.169E+01   0.638E-14 -.112E-13 0.120E+01   -.493E-21 -.199E-19 0.489E+00   -.169E-13 -.710E-13 0.182E-04
   0.460E-09 0.899E-09 -.169E+01   0.730E-14 -.408E-14 0.120E+01   0.231E-21 0.397E-19 0.489E+00   0.286E-13 0.859E-13 0.182E-04
   0.460E-09 0.899E-09 -.169E+01   -.231E-15 -.174E-13 0.120E+01   0.146E-20 -.163E-20 0.489E+00   -.314E-13 0.734E-13 0.182E-04
   0.460E-09 0.899E-09 -.169E+01   -.118E-13 -.102E-13 0.120E+01   0.328E-20 0.219E-19 0.489E+00   0.427E-14 0.499E-13 0.182E-04
   0.460E-09 0.899E-09 -.169E+01   0.334E-14 -.133E-13 0.120E+01   0.367E-21 -.110E-19 0.489E+00   0.105E-13 -.147E-12 0.182E-04
   0.460E-09 0.898E-09 -.169E+01   0.295E-14 -.118E-13 0.120E+01   0.306E-20 -.197E-19 0.489E+00   -.259E-13 -.368E-13 0.182E-04
   0.460E-09 0.899E-09 -.169E+01   0.387E-14 -.339E-14 0.120E+01   0.224E-21 -.275E-19 0.489E+00   0.314E-13 0.147E-12 0.182E-04
 -----------------------------------------------------------------------------------------------
   0.680E-07 0.527E-07 -.477E-04   -.422E-13 0.214E-13 -.195E-13   -.166E-19 -.678E-19 0.106E-13   -.296E-13 -.155E-13 -.124E-09
 
 
 POSITION                                       TOTAL-FORCE (eV/Angst)
 -----------------------------------------------------------------------------------
      0.00000      0.00000     10.79000        -0.000000      0.000000     -0.000261
      0.00000      0.00000      5.39087        -0.000000     -0.000000     -0.000261
     -0.05399      5.39913     10.79000         0.000000     -0.000000     -0.000261
     -0.05399      5.39913      5.39087         0.000000     -0.000000     -0.000261
      5.29115     -0.05399     10.79000        -0.000000      0.000000     -0.000261
      5.29115     -0.05399      5.39087        -0.000000     -0.000000     -0.000261
      5.23716      5.34514     10.79000         0.000000     -0.000000     -0.000261
      5.23716      5.34514      5.39087        -0.000000      0.000000     -0.000261
      3.92787      4.00886      1.35804        -0.000000      0.000000      0.000261
      3.92787      4.00886      6.75718        -0.000000      0.000000      0.000261
      3.87388      9.40799      1.35804         0.000000     -0.000000      0.000261
      3.87388      9.40799      6.75718         0.000000     -0.000000      0.000261
      9.21902      3.95486      1.35804        -0.000000      0.000000      0.000261
      9.21902      3.95486      6.75718        -0.000000      0.000000      0.000261
      9.16503      9.35400      1.35804         0.000000      0.000000      0.000261
      9.16503      9.35400      6.75718         0.000000     -0.000000      0.000261
     -0.02700      2.69957      2.69130        -0.000000      0.000000     -0.000261
     -0.02700      2.69957      8.09044         0.000000      0.000000     -0.000261
     -0.08099      8.09870      2.69130         0.000000     -0.000000     -0.000261
     -0.08099      8.09870      8.09044        -0.000000      0.000000     -0.000261
      5.26415      2.64557      2.69130         0.000000      0.000000     -0.000261
      5.26415      2.64557      8.09044        -0.000000      0.000000     -0.000261
      5.21016      8.04471      2.69130         0.000000     -0.000000     -0.000261
      5.21016      8.04471      8.09044        -0.000000     -0.000000     -0.000261
      3.95486      1.30929      4.05761         0.000000     -0.000000      0.000261
      3.95486      1.30929      9.45674         0.000000     -0.000000      0.000261
      3.90087      6.70842      4.05761        -0.000000      0.000000      0.000261
      3.90087      6.70842      9.45674        -0.000000     -0.000000      0.000261
      9.24601      1.25530      4.05761         0.000000     -0.000000      0.000261
      9.24601      1.25530      9.45674         0.000000     -0.000000      0.000261
      9.19202      6.65443      4.05761        -0.000000      0.000000      0.000261
      9.19202      6.65443      9.45674        -0.000000      0.000000      0.000261
      2.64557     -0.02700      2.69130        -0.000000      0.000000     -0.000261
      2.64557     -0.02700      8.09044        -0.000000      0.000000     -0.000261
      2.59158      5.37214      2.69130         0.000000     -0.000000     -0.000261
      2.59158      5.37214      8.09044         0.000000     -0.000000     -0.000261
      7.93672     -0.08099      2.69130        -0.000000     -0.000000     -0.000261
      7.93672     -0.08099      8.09044        -0.000000      0.000000     -0.000261
      7.88273      5.31815      2.69130         0.000000     -0.000000     -0.000261
      7.88273      5.31815      8.09044         0.000000     -0.000000     -0.000261
      1.28229      4.03585      4.05761        -0.000000     -0.000000      0.000261
      1.28229      4.03585      9.45674        -0.000000      0.000000      0.000261
      1.22830      9.43498      4.05761        -0.000000     -0.000000      0.000261
      1.22830      9.43498      9.45674         0.000000     -0.000000      0.000261
      6.57344      3.98186      4.05761         0.000000      0.000000      0.000261
      6.57344      3.98186      9.45674        -0.000000      0.000000      0.000261
      6.51945      9.38099      4.05761         0.000000     -0.000000      0.000261
      6.51945      9.38099      9.45674         0.000000     -0.000000      0.000261
      2.61858      2.67257     10.79000         0.000000      0.000000     -0.000261
      2.61858      2.67257      5.39087        -0.000000      0.000000     -0.000261
      2.56459      8.07170     10.79000         0.000000      0.000000     -0.000261
      2.56459      8.07170      5.39087        -0.000000     -0.000000     -0.000261
      7.90973      2.61858     10.79000        -0.000000      0.000000     -0.000261
      7.90973      2.61858      5.39087        -0.000000      0.000000     -0.000261
      7.85574      8.01771     10.79000         0.000000     -0.000000     -0.000261
      7.85574      8.01771      5.39087         0.000000     -0.000000     -0.000261
      1.30929      1.33629      1.35804         0.000000     -0.000000      0.000261
      1.30929      1.33629      6.75718         0.000000     -0.000000      0.000261
      1.25530      6.73542      1.35804        -0.000000      0.000000      0.000261
      1.25530      6.73542      6.75718        -0.000000     -0.000000      0.000261
      6.60044      1.28229      1.35804         0.000000     -0.000000      0.000261
      6.60044      1.28229      6.75718         0.000000     -0.000000      0.000261
      6.54645      6.68143      1.35804        -0.000000      0.000000      0.000261
      6.54645      6.68143      6.75718        -0.000000      0.000000      0.000261
 -----------------------------------------------------------------------------------
    total drift:                                0.000000      0.000000     -0.000048


--------------------------------------------------------------------------------------------------------



  FREE ENERGIE OF THE ION-ELECTRON SYSTEM (eV)
  ---------------------------------------------------
  free  energy   TOTEN  =      -366.77355682 eV

  energy  without entropy=     -366.79102270  energy(sigma->0) =     -366.77937878
 
 d Force = 0.8689565E-02[-0.520E-04, 0.174E-01]  d Energy = 0.8723230E-02-0.337E-04
 d Force =-0.2233476E+00[-0.239E+00,-0.207E+00]  d Ewald  =-0.2233374E+00-0.103E-04


--------------------------------------------------------------------------------------------------------


    POTLOK:  cpu time      0.1419: real time      0.1423


--------------------------------------------------------------------------------------------------------




--------------------------------------------------------------------------------------------------------


  
 reached required accuracy - stopping structural energy minimisation
     LOOP+:  cpu time     12.8772: real time     13.0564
    4ORBIT:  cpu time      0.0000: real time      0.0000

 total amount of memory used by VASP MPI-rank0    79666. kBytes
=======================================================================

   base      :      30000. kBytes
   nonlr-proj:       4598. kBytes
   fftplans  :      17993. kBytes
   grid      :       6881. kBytes
   one-center:         18. kBytes
   wavefun   :      20176. kBytes
 
  
  
 General timing and accounting informations for this job:
 ========================================================
  
                  Total CPU time used (sec):       58.334
                            User time (sec):       54.973
                          System time (sec):        3.361
                         Elapsed time (sec):       61.783
  
                   Maximum memory used (kb):      409544.
                   Average memory used (kb):          N/A
  
                          Minor page faults:        93015
                          Major page faults:            0
                 Voluntary context switches:         8926
