<?xml version="1.0" encoding="ISO-8859-1"?>
<modeling>
 <generator>
  <i name="program" type="string">vasp </i>
  <i name="version" type="string">6.4.3  </i>
  <i name="subversion" type="string">19Mar24 (build Oct 21 2024 22:36:34) complex                          parallel </i>
  <i name="platform" type="string">LinuxIFC </i>
  <i name="date" type="string">2024 11 01 </i>
  <i name="time" type="string">22:54:41 </i>
 </generator>
 <incar>
  <i type="string" name="SYSTEM">Si64</i>
  <i type="int" name="ISTART">     0</i>
  <i type="string" name="PREC">Accurate</i>
  <i type="string" name="ALGO">Fast</i>
  <i type="logical" name="ADDGRID"> T  </i>
  <i type="int" name="ICHARG">     2</i>
  <i type="int" name="NELM">    60</i>
  <i type="int" name="NELMIN">     8</i>
  <i type="int" name="IBRION">     2</i>
  <i name="EDIFF">      0.00000100</i>
  <i name="EDIFFG">     -0.01000000</i>
  <i type="int" name="NSW">    60</i>
  <i type="int" name="ISIF">     2</i>
  <i name="ENCUT">    400.00000000</i>
  <i type="string" name="LREAL">Auto</i>
  <i type="int" name="ISMEAR">     1</i>
  <i name="SIGMA">      0.20000000</i>
  <i type="logical" name="LWAVE"> F  </i>
  <i type="logical" name="LCHARG"> F  </i>
  <i type="logical" name="GGA_COMPAT"> F  </i>
  <i type="string" name="GGA">PS</i>
 </incar>
 <primitive_cell>
  <structure name="primitive_cell" >
   <crystal>
    <varray name="basis" >
     <v>      -2.60652438       0.02659725      -2.65971889 </v>
     <v>      -2.60652438       0.02659725       2.65971889 </v>
     <v>       2.57992713       2.63312164      -0.00000000 </v>
    </varray>
    <i name="volume">     36.87388918 </i>
    <varray name="rec_basis" >
     <v>      -0.18992744       0.18609051      -0.18798979 </v>
     <v>      -0.18992744       0.18609051       0.18798979 </v>
     <v>       0.00383693       0.37601795      -0.00000000 </v>
    </varray>
   </crystal>
   <varray name="positions" >
    <v>       0.00000000       0.00000000       0.00000000 </v>
    <v>       0.75000000       0.25000000       0.50000000 </v>
   </varray>
  </structure>
  <varray name="primitive_index" >
   <v type="int" >        1 </v>
   <v type="int" >       15 </v>
  </varray>
 </primitive_cell>
 <kpoints>
  <generation param="Gamma">
   <v type="int" name="divisions">       2        2        2 </v>
   <v name="usershift">      0.00000000       0.00000000       0.00000000 </v>
   <v name="genvec1">      0.50000000       0.00000000       0.00000000 </v>
   <v name="genvec2">     -0.00000000       0.50000000       0.00000000 </v>
   <v name="genvec3">      0.00000000       0.00000000       0.50000000 </v>
   <v name="shift">      0.00000000       0.00000000       0.00000000 </v>
  </generation>
  <varray name="kpointlist" >
   <v>       0.00000000       0.00000000       0.00000000 </v>
   <v>       0.50000000      -0.00000000       0.00000000 </v>
   <v>       0.00000000       0.50000000       0.00000000 </v>
   <v>       0.50000000       0.50000000       0.00000000 </v>
   <v>       0.00000000       0.00000000       0.50000000 </v>
   <v>       0.50000000      -0.00000000       0.50000000 </v>
   <v>       0.00000000       0.50000000       0.50000000 </v>
   <v>       0.50000000       0.50000000       0.50000000 </v>
  </varray>
  <varray name="weights" >
   <v>       0.12500000 </v>
   <v>       0.12500000 </v>
   <v>       0.12500000 </v>
   <v>       0.12500000 </v>
   <v>       0.12500000 </v>
   <v>       0.12500000 </v>
   <v>       0.12500000 </v>
   <v>       0.12500000 </v>
  </varray>
 </kpoints>
 <parameters>
  <separator name="general" >
   <i type="string" name="SYSTEM">Si64</i>
   <i type="logical" name="LCOMPAT"> F  </i>
  </separator>
  <separator name="electronic" >
   <i type="string" name="PREC">accura</i>
   <i name="ENMAX">    400.00000000</i>
   <i name="ENAUG">    322.06900000</i>
   <i name="EDIFF">      0.00000100</i>
   <i type="int" name="IALGO">    68</i>
   <i type="int" name="IWAVPR">    11</i>
   <i type="int" name="NBANDS">   162</i>
   <i type="int" name="NBANDSLOW">    -1</i>
   <i type="int" name="NBANDSHIGH">    -1</i>
   <i name="NELECT">    256.00000000</i>
   <i type="int" name="TURBO">     0</i>
   <i type="int" name="IRESTART">     0</i>
   <i type="int" name="NREBOOT">     0</i>
   <i type="int" name="NMIN">     0</i>
   <i name="EREF">      0.00000000</i>
   <separator name="electronic smearing" >
    <i type="int" name="ISMEAR">     1</i>
    <i name="SIGMA">      0.20000000</i>
    <i name="KSPACING">      0.50000000</i>
    <i type="logical" name="KGAMMA"> T  </i>
    <i type="logical" name="KBLOWUP"> T  </i>
   </separator>
   <separator name="electronic projectors" >
    <i type="logical" name="LREAL"> T  </i>
    <v name="ROPT">     -0.00025000</v>
    <i type="int" name="LMAXPAW">  -100</i>
    <i type="int" name="LMAXMIX">     2</i>
    <i type="logical" name="NLSPLINE"> F  </i>
   </separator>
   <separator name="electronic startup" >
    <i type="int" name="ISTART">     0</i>
    <i type="int" name="ICHARG">     2</i>
    <i type="int" name="INIWAV">     1</i>
   </separator>
   <separator name="electronic spin" >
    <i type="int" name="ISPIN">     1</i>
    <i type="logical" name="LNONCOLLINEAR"> F  </i>
    <v name="MAGMOM">      1.00000000      1.00000000      1.00000000      1.00000000      1.00000000      1.00000000      1.00000000      1.00000000      1.00000000      1.00000000      1.00000000      1.00000000      1.00000000      1.00000000      1.00000000      1.00000000      1.00000000      1.00000000      1.00000000      1.00000000
      1.00000000      1.00000000      1.00000000      1.00000000      1.00000000      1.00000000      1.00000000      1.00000000      1.00000000      1.00000000      1.00000000      1.00000000      1.00000000      1.00000000      1.00000000      1.00000000      1.00000000      1.00000000      1.00000000      1.00000000
      1.00000000      1.00000000      1.00000000      1.00000000      1.00000000      1.00000000      1.00000000      1.00000000      1.00000000      1.00000000      1.00000000      1.00000000      1.00000000      1.00000000      1.00000000      1.00000000      1.00000000      1.00000000      1.00000000      1.00000000
      1.00000000      1.00000000      1.00000000      1.00000000</v>
    <i name="NUPDOWN">     -1.00000000</i>
    <i type="logical" name="LSORBIT"> F  </i>
    <v name="SAXIS">      0.00000000      0.00000000      1.00000000</v>
    <i type="logical" name="LSPIRAL"> F  </i>
    <v name="QSPIRAL">      0.00000000      0.00000000      0.00000000</v>
    <i type="logical" name="LZEROZ"> F  </i>
   </separator>
   <separator name="electronic exchange-correlation" >
    <i type="logical" name="LASPH"> F  </i>
   </separator>
   <separator name="electronic convergence" >
    <i type="int" name="NELM">    60</i>
    <i type="int" name="NELMDL">    -5</i>
    <i type="int" name="NELMIN">     8</i>
    <i name="ENINI">    400.00000000</i>
    <separator name="electronic convergence detail" >
     <i type="logical" name="LDIAG"> T  </i>
     <i type="logical" name="LSUBROT"> F  </i>
     <i name="WEIMIN">      0.00100000</i>
     <i name="EBREAK">      0.00000000</i>
     <i name="DEPER">      0.30000000</i>
     <i type="int" name="NRMM">     4</i>
     <i name="TIME">      0.40000000</i>
    </separator>
   </separator>
   <separator name="electronic mixer" >
    <i name="AMIX">      0.40000000</i>
    <i name="BMIX">      1.00000000</i>
    <i name="AMIN">      0.10000000</i>
    <i name="AMIX_MAG">      1.60000000</i>
    <i name="BMIX_MAG">      1.00000000</i>
    <separator name="electronic mixer details" >
     <i type="int" name="IMIX">     4</i>
     <i type="logical" name="MIXFIRST"> F  </i>
     <i type="int" name="MAXMIX">   -45</i>
     <i name="WC">    100.00000000</i>
     <i type="int" name="INIMIX">     1</i>
     <i type="int" name="MIXPRE">     1</i>
     <i type="int" name="MREMOVE">     5</i>
    </separator>
   </separator>
   <separator name="electronic dipolcorrection" >
    <i type="logical" name="LDIPOL"> F  </i>
    <i type="logical" name="LMONO"> F  </i>
    <i type="int" name="IDIPOL">     0</i>
    <i name="EPSILON">      1.00000000</i>
    <v name="DIPOL">   -100.00000000   -100.00000000   -100.00000000</v>
    <i name="EFIELD">      0.00000000</i>
    <i type="logical" name="LVACPOTAV"> F  </i>
   </separator>
  </separator>
  <separator name="grids" >
   <i type="int" name="NGX">    70</i>
   <i type="int" name="NGY">    70</i>
   <i type="int" name="NGZ">    70</i>
   <i type="int" name="NGXF">   140</i>
   <i type="int" name="NGYF">   140</i>
   <i type="int" name="NGZF">   140</i>
   <i type="logical" name="ADDGRID"> T  </i>
  </separator>
  <separator name="ionic" >
   <i type="int" name="NSW">    60</i>
   <i type="int" name="IBRION">     2</i>
   <i type="int" name="MDALGO">     0</i>
   <i type="int" name="ISIF">     2</i>
   <i name="PSTRESS">      0.00000000</i>
   <i name="EDIFFG">     -0.01000000</i>
   <i type="int" name="NFREE">     1</i>
   <i name="POTIM">      0.50000000</i>
   <i name="SMASS">     -3.00000000</i>
   <i name="SCALEE">      1.00000000</i>
  </separator>
  <separator name="ionic md" >
   <i name="TEBEG">      0.00010000</i>
   <i name="TEEND">      0.00010000</i>
   <i type="int" name="NBLOCK">     1</i>
   <i type="int" name="KBLOCK">    60</i>
   <i type="int" name="NPACO">   256</i>
   <i name="APACO">     10.00000000</i>
  </separator>
  <separator name="symmetry" >
   <i type="int" name="ISYM">     2</i>
   <i name="SYMPREC">      0.00001000</i>
  </separator>
  <separator name="dos" >
   <i type="int" name="LORBIT">     0</i>
   <v name="RWIGS">     -1.00000000</v>
   <i type="int" name="NEDOS">   301</i>
   <i name="EMIN">     10.00000000</i>
   <i name="EMAX">    -10.00000000</i>
   <i name="EFERMI">      0.00000000</i>
  </separator>
  <separator name="writing" >
   <i type="int" name="NWRITE">     2</i>
   <i type="logical" name="LWAVE"> F  </i>
   <i type="logical" name="LDOWNSAMPLE"> F  </i>
   <i type="logical" name="LCHARG"> F  </i>
   <i type="logical" name="LPARD"> F  </i>
   <i type="logical" name="LVTOT"> F  </i>
   <i type="logical" name="LVHAR"> F  </i>
   <i type="logical" name="LELF"> F  </i>
   <i type="logical" name="LOPTICS"> F  </i>
   <v name="STM">      0.00000000      0.00000000      0.00000000      0.00000000      0.00000000      0.00000000      0.00000000</v>
  </separator>
  <separator name="performance" >
   <i type="int" name="NPAR">     2</i>
   <i type="int" name="NSIM">     4</i>
   <i type="int" name="NBLK">    -1</i>
   <i type="logical" name="LPLANE"> T  </i>
   <i type="logical" name="LSCALAPACK"> T  </i>
   <i type="logical" name="LSCAAWARE"> F  </i>
   <i type="logical" name="LSCALU"> F  </i>
   <i type="logical" name="LASYNC"> F  </i>
   <i type="logical" name="LORBITALREAL"> F  </i>
  </separator>
  <separator name="miscellaneous" >
   <i type="int" name="IDIOT">     3</i>
   <i type="int" name="PHON_NSTRUCT">    -1</i>
   <i type="logical" name="LMUSIC"> F  </i>
   <v name="POMASS">     28.08500000</v>
   <v name="DARWINR">      0.00000000</v>
   <v name="DARWINV">      1.00000000</v>
   <i type="logical" name="LCORR"> T  </i>
  </separator>
  <i type="logical" name="GGA_COMPAT"> F  </i>
  <i type="logical" name="LBERRY"> F  </i>
  <i type="int" name="ICORELEVEL">     0</i>
  <i type="logical" name="LDAU"> F  </i>
  <i type="int" name="I_CONSTRAINED_M">     0</i>
  <separator name="electronic exchange-correlation" >
   <i type="string" name="GGA    ">PS</i>
   <i type="string" name="XC_C">1</i>
   <i type="int" name="VOSKOWN">     0</i>
   <i type="logical" name="LHFCALC"> F  </i>
   <i type="string" name="PRECFOCK"></i>
   <i type="logical" name="LSYMGRAD"> F  </i>
   <i type="logical" name="LHFONE"> F  </i>
   <i type="logical" name="LRHFCALC"> F  </i>
   <i type="logical" name="LTHOMAS"> F  </i>
   <i type="logical" name="LMODELHF"> F  </i>
   <i type="logical" name="LFOCKACE"> F  </i>
   <i name="ENCUT4O">     -1.00000000</i>
   <i type="int" name="EXXOEP">     0</i>
   <i type="int" name="FOURORBIT">     0</i>
   <i name="AEXX">      0.00000000</i>
   <i name="HFALPHA">      0.00000000</i>
   <i name="MCALPHA">      0.00000000</i>
   <i name="ALDAX">      1.00000000</i>
   <i name="AGGAX">      1.00000000</i>
   <i name="AMGGAX">      1.00000000</i>
   <i name="ALDAC">      1.00000000</i>
   <i name="AGGAC">      1.00000000</i>
   <i name="AMGGAC">      1.00000000</i>
   <i type="int" name="NKREDX">     1</i>
   <i type="int" name="NKREDY">     1</i>
   <i type="int" name="NKREDZ">     1</i>
   <i type="logical" name="SHIFTRED"> F  </i>
   <i type="logical" name="ODDONLY"> F  </i>
   <i type="logical" name="EVENONLY"> F  </i>
   <i type="int" name="LMAXFOCK">     0</i>
   <i type="int" name="NMAXFOCKAE">     0</i>
   <i type="logical" name="LFOCKAEDFT"> F  </i>
   <i name="HFSCREEN">      0.00000000</i>
   <i name="HFSCREENC">      0.00000000</i>
   <i type="int" name="NBANDSGWLOW">     0</i>
  </separator>
  <separator name="vdW DFT" >
   <i type="logical" name="LUSE_VDW"> F  </i>
   <i type="int" name="IVDW_NL">    -1</i>
   <i type="logical" name="LSPIN_VDW"> F  </i>
   <i name="ZAB_VDW">     -0.84910000</i>
   <i name="GAMMA_VDW">      1.39626340</i>
   <i name="ALPHA_VDW">      0.00000000</i>
   <i name="PARAM1">      0.12340000</i>
   <i name="PARAM2">      1.00000000</i>
   <i name="BPARAM">      6.30000000</i>
   <i name="CPARAM">      0.00930000</i>
  </separator>
  <separator name="model GW" >
   <i type="int" name="MODEL_GW">     0</i>
   <i name="MODEL_EPS0">     11.06216675</i>
   <i name="MODEL_ALPHA">      1.00000000</i>
  </separator>
  <separator name="linear response parameters" >
   <i type="logical" name="LEPSILON"> F  </i>
   <i type="logical" name="LRPA"> F  </i>
   <i type="logical" name="LNABLA"> F  </i>
   <i type="logical" name="LVEL"> F  </i>
   <i name="CSHIFT">      0.10000000</i>
   <i name="OMEGAMAX">     -1.00000000</i>
   <i name="DEG_THRESHOLD">      0.00200000</i>
   <i name="RTIME">     -0.10000000</i>
   <i name="WPLASMAI">      0.00000000</i>
   <v name="DFIELD">      0.00000000      0.00000000      0.00000000</v>
   <v name="WPLASMA">      0.00000000      0.00000000      0.00000000      0.00000000      0.00000000      0.00000000      0.00000000      0.00000000      0.00000000</v>
  </separator>
  <separator name="orbital magnetization" >
   <i type="logical" name="NUCIND"> F  </i>
   <v name="MAGPOS">      0.00000000      0.00000000      0.00000000</v>
   <i type="logical" name="LNICSALL"> T  </i>
   <i type="logical" name="ORBITALMAG"> F  </i>
   <i type="logical" name="LMAGBLOCH"> F  </i>
   <i type="logical" name="LCHIMAG"> F  </i>
   <i type="logical" name="LGAUGE"> T  </i>
   <i type="int" name="MAGATOM">     0</i>
   <v name="MAGDIPOL">      0.00000000      0.00000000      0.00000000</v>
   <v name="AVECCONST">      0.00000000      0.00000000      0.00000000</v>
  </separator>
  <separator name="response functions" >
   <i type="logical" name="LALL_IN_ONE"> F  </i>
   <i type="int" name="IALL_IN_ONE">    -1</i>
   <i type="int" name="NBANDS_WAVE">    -1</i>
   <i type="logical" name="LFINITE_TEMPERATURE"> F  </i>
   <i type="logical" name="LADDER"> F  </i>
   <i type="logical" name="LRPAFORCE"> F  </i>
   <i type="logical" name="LFXC"> F  </i>
   <i type="logical" name="LHARTREE"> T  </i>
   <i type="int" name="IBSE">     0</i>
   <v type="int" name="KPOINT">    -1     0     0     0</v>
   <i type="logical" name="LTCTC"> F  </i>
   <i type="logical" name="LTCTE"> F  </i>
   <i type="logical" name="LTETE"> F  </i>
   <i type="logical" name="LTRIPLET"> F  </i>
   <i type="logical" name="LFXCEPS"> F  </i>
   <i type="logical" name="LFXHEG"> F  </i>
   <i type="int" name="NATURALO">     2</i>
   <i type="logical" name="LHOLEGF"> F  </i>
   <i type="logical" name="L2ORDER"> F  </i>
   <i type="logical" name="LDMP1"> F  </i>
   <i type="logical" name="LMP2LT"> F  </i>
   <i type="logical" name="LSMP2LT"> F  </i>
   <i type="logical" name="LGWLF"> F  </i>
   <i name="ENCUTGW">     -1.60000002</i>
   <i name="ENCUTGWSOFT">     -1.60000002</i>
   <i name="ENCUTLF">     -1.00000000</i>
   <i type="logical" name="ESF_SPLINES"> F  </i>
   <i name="ESF_CONV">      0.01000000</i>
   <i type="int" name="ESF_NINTER">    15</i>
   <i type="int" name="LMAXMP2">    -1</i>
   <i name="SCISSOR">      0.00000000</i>
   <i type="int" name="NOMEGA">     0</i>
   <i type="int" name="NOMEGAR">     0</i>
   <i type="int" name="NBANDSGW">    -1</i>
   <i type="int" name="NBANDSO">    -1</i>
   <i type="int" name="NBANDSV">    -1</i>
   <i type="int" name="NELMGW">     1</i>
   <i type="int" name="NELMHF">     1</i>
   <i type="int" name="DIM">     3</i>
   <i type="int" name="IESPILON">     4</i>
   <i type="int" name="ANTIRES">     0</i>
   <i name="OMEGAMAX">    -30.00000000</i>
   <i name="OMEGAMIN">    -30.00000000</i>
   <i name="OMEGATL">   -200.00000000</i>
   <i type="int" name="OMEGAGRID">     0</i>
   <i name="CSHIFT">     -0.10000000</i>
   <i type="logical" name="LSELFENERGY"> F  </i>
   <i type="logical" name="LSPECTRAL"> F  </i>
   <i type="logical" name="LSPECTRALGW"> F  </i>
   <i type="logical" name="LSINGLES"> F  </i>
   <i type="logical" name="LFERMIGW"> F  </i>
   <i type="logical" name="ODDONLYGW"> F  </i>
   <i type="logical" name="EVENONLYGW"> F  </i>
   <i type="int" name="NKREDLFX">     1</i>
   <i type="int" name="NKREDLFY">     1</i>
   <i type="int" name="NKREDLFZ">     1</i>
   <i type="int" name="MAXMEM">  2800</i>
   <i type="int" name="TELESCOPE">     0</i>
   <i type="int" name="NTAUPAR">    -1</i>
   <i type="int" name="NOMEGAPAR">    -1</i>
   <i name="DAMP_NEWTON">      0.80000001</i>
   <i name="LAMBDA">      1.00000000</i>
  </separator>
  <separator name="External order field" >
   <i name="OFIELD_KAPPA">      0.00000000</i>
   <v name="OFIELD_K">      0.00000000      0.00000000      0.00000000</v>
   <i name="OFIELD_Q6_NEAR">      0.00000000</i>
   <i name="OFIELD_Q6_FAR">      0.00000000</i>
   <i name="OFIELD_A">      0.00000000</i>
  </separator>
  <separator name="optional k-points parameters" >
   <i type="int" name="KPOINTS_OPT_MODE">     1</i>
   <i type="logical" name="LKPOINTS_OPT"> F  </i>
  </separator>
 </parameters>
 <atominfo>
  <atoms>      64 </atoms>
  <types>       1 </types>
  <array name="atoms" >
   <dimension dim="1">ion</dimension>
   <field type="string">element</field>
   <field type="int">atomtype</field>
   <set>
    <rc><c>Si</c><c>   1</c></rc>
    <rc><c>Si</c><c>   1</c></rc>
    <rc><c>Si</c><c>   1</c></rc>
    <rc><c>Si</c><c>   1</c></rc>
    <rc><c>Si</c><c>   1</c></rc>
    <rc><c>Si</c><c>   1</c></rc>
    <rc><c>Si</c><c>   1</c></rc>
    <rc><c>Si</c><c>   1</c></rc>
    <rc><c>Si</c><c>   1</c></rc>
    <rc><c>Si</c><c>   1</c></rc>
    <rc><c>Si</c><c>   1</c></rc>
    <rc><c>Si</c><c>   1</c></rc>
    <rc><c>Si</c><c>   1</c></rc>
    <rc><c>Si</c><c>   1</c></rc>
    <rc><c>Si</c><c>   1</c></rc>
    <rc><c>Si</c><c>   1</c></rc>
    <rc><c>Si</c><c>   1</c></rc>
    <rc><c>Si</c><c>   1</c></rc>
    <rc><c>Si</c><c>   1</c></rc>
    <rc><c>Si</c><c>   1</c></rc>
    <rc><c>Si</c><c>   1</c></rc>
    <rc><c>Si</c><c>   1</c></rc>
    <rc><c>Si</c><c>   1</c></rc>
    <rc><c>Si</c><c>   1</c></rc>
    <rc><c>Si</c><c>   1</c></rc>
    <rc><c>Si</c><c>   1</c></rc>
    <rc><c>Si</c><c>   1</c></rc>
    <rc><c>Si</c><c>   1</c></rc>
    <rc><c>Si</c><c>   1</c></rc>
    <rc><c>Si</c><c>   1</c></rc>
    <rc><c>Si</c><c>   1</c></rc>
    <rc><c>Si</c><c>   1</c></rc>
    <rc><c>Si</c><c>   1</c></rc>
    <rc><c>Si</c><c>   1</c></rc>
    <rc><c>Si</c><c>   1</c></rc>
    <rc><c>Si</c><c>   1</c></rc>
    <rc><c>Si</c><c>   1</c></rc>
    <rc><c>Si</c><c>   1</c></rc>
    <rc><c>Si</c><c>   1</c></rc>
    <rc><c>Si</c><c>   1</c></rc>
    <rc><c>Si</c><c>   1</c></rc>
    <rc><c>Si</c><c>   1</c></rc>
    <rc><c>Si</c><c>   1</c></rc>
    <rc><c>Si</c><c>   1</c></rc>
    <rc><c>Si</c><c>   1</c></rc>
    <rc><c>Si</c><c>   1</c></rc>
    <rc><c>Si</c><c>   1</c></rc>
    <rc><c>Si</c><c>   1</c></rc>
    <rc><c>Si</c><c>   1</c></rc>
    <rc><c>Si</c><c>   1</c></rc>
    <rc><c>Si</c><c>   1</c></rc>
    <rc><c>Si</c><c>   1</c></rc>
    <rc><c>Si</c><c>   1</c></rc>
    <rc><c>Si</c><c>   1</c></rc>
    <rc><c>Si</c><c>   1</c></rc>
    <rc><c>Si</c><c>   1</c></rc>
    <rc><c>Si</c><c>   1</c></rc>
    <rc><c>Si</c><c>   1</c></rc>
    <rc><c>Si</c><c>   1</c></rc>
    <rc><c>Si</c><c>   1</c></rc>
    <rc><c>Si</c><c>   1</c></rc>
    <rc><c>Si</c><c>   1</c></rc>
    <rc><c>Si</c><c>   1</c></rc>
    <rc><c>Si</c><c>   1</c></rc>
   </set>
  </array>
  <array name="atomtypes" >
   <dimension dim="1">type</dimension>
   <field type="int">atomspertype</field>
   <field type="string">element</field>
   <field>mass</field>
   <field>valence</field>
   <field type="string">pseudopotential</field>
   <set>
    <rc><c>  64</c><c>Si</c><c>     28.08500000</c><c>      4.00000000</c><c>  PAW_PBE Si 05Jan2001                  </c></rc>
   </set>
  </array>
 </atominfo>
 <structure name="initialpos" >
  <crystal>
   <varray name="basis" >
    <v>      10.42609754      -0.10638902       0.00000000 </v>
    <v>      -0.10638902      10.63887557       0.00000000 </v>
    <v>       0.00000000       0.00000000      10.63887557 </v>
   </varray>
   <i name="volume">   1179.96445374 </i>
   <varray name="rec_basis" >
    <v>       0.09592295       0.00095923       0.00000000 </v>
    <v>       0.00095923       0.09400449       0.00000000 </v>
    <v>       0.00000000       0.00000000       0.09399490 </v>
   </varray>
  </crystal>
  <varray name="positions" >
   <v>       0.00000000       0.00000000       0.00000000 </v>
   <v>       0.00000000       0.00000000       0.50000000 </v>
   <v>       0.00000000       0.50000000       0.00000000 </v>
   <v>       0.00000000       0.50000000       0.50000000 </v>
   <v>       0.50000000       0.00000000       0.00000000 </v>
   <v>       0.50000000       0.00000000       0.50000000 </v>
   <v>       0.50000000       0.50000000       0.00000000 </v>
   <v>       0.50000000       0.50000000       0.50000000 </v>
   <v>       0.37500000       0.37500000       0.12500000 </v>
   <v>       0.37500000       0.37500000       0.62500000 </v>
   <v>       0.37500000       0.87500000       0.12500000 </v>
   <v>       0.37500000       0.87500000       0.62500000 </v>
   <v>       0.87500000       0.37500000       0.12500000 </v>
   <v>       0.87500000       0.37500000       0.62500000 </v>
   <v>       0.87500000       0.87500000       0.12500000 </v>
   <v>       0.87500000       0.87500000       0.62500000 </v>
   <v>       0.00000000       0.25000000       0.25000000 </v>
   <v>       0.00000000       0.25000000       0.75000000 </v>
   <v>       0.00000000       0.75000000       0.25000000 </v>
   <v>       0.00000000       0.75000000       0.75000000 </v>
   <v>       0.50000000       0.25000000       0.25000000 </v>
   <v>       0.50000000       0.25000000       0.75000000 </v>
   <v>       0.50000000       0.75000000       0.25000000 </v>
   <v>       0.50000000       0.75000000       0.75000000 </v>
   <v>       0.37500000       0.12500000       0.37500000 </v>
   <v>       0.37500000       0.12500000       0.87500000 </v>
   <v>       0.37500000       0.62500000       0.37500000 </v>
   <v>       0.37500000       0.62500000       0.87500000 </v>
   <v>       0.87500000       0.12500000       0.37500000 </v>
   <v>       0.87500000       0.12500000       0.87500000 </v>
   <v>       0.87500000       0.62500000       0.37500000 </v>
   <v>       0.87500000       0.62500000       0.87500000 </v>
   <v>       0.25000000       0.00000000       0.25000000 </v>
   <v>       0.25000000       0.00000000       0.75000000 </v>
   <v>       0.25000000       0.50000000       0.25000000 </v>
   <v>       0.25000000       0.50000000       0.75000000 </v>
   <v>       0.75000000       0.00000000       0.25000000 </v>
   <v>       0.75000000       0.00000000       0.75000000 </v>
   <v>       0.75000000       0.50000000       0.25000000 </v>
   <v>       0.75000000       0.50000000       0.75000000 </v>
   <v>       0.12500000       0.37500000       0.37500000 </v>
   <v>       0.12500000       0.37500000       0.87500000 </v>
   <v>       0.12500000       0.87500000       0.37500000 </v>
   <v>       0.12500000       0.87500000       0.87500000 </v>
   <v>       0.62500000       0.37500000       0.37500000 </v>
   <v>       0.62500000       0.37500000       0.87500000 </v>
   <v>       0.62500000       0.87500000       0.37500000 </v>
   <v>       0.62500000       0.87500000       0.87500000 </v>
   <v>       0.25000000       0.25000000       0.00000000 </v>
   <v>       0.25000000       0.25000000       0.50000000 </v>
   <v>       0.25000000       0.75000000       0.00000000 </v>
   <v>       0.25000000       0.75000000       0.50000000 </v>
   <v>       0.75000000       0.25000000       0.00000000 </v>
   <v>       0.75000000       0.25000000       0.50000000 </v>
   <v>       0.75000000       0.75000000       0.00000000 </v>
   <v>       0.75000000       0.75000000       0.50000000 </v>
   <v>       0.12500000       0.12500000       0.12500000 </v>
   <v>       0.12500000       0.12500000       0.62500000 </v>
   <v>       0.12500000       0.62500000       0.12500000 </v>
   <v>       0.12500000       0.62500000       0.62500000 </v>
   <v>       0.62500000       0.12500000       0.12500000 </v>
   <v>       0.62500000       0.12500000       0.62500000 </v>
   <v>       0.62500000       0.62500000       0.12500000 </v>
   <v>       0.62500000       0.62500000       0.62500000 </v>
  </varray>
 </structure>
 <calculation>
  <scstep>
   <time name="dav">    1.25    1.32</time>
   <time name="total">    1.42    1.49</time>
   <energy>
    <i name="alphaZ">    116.85452330 </i>
    <i name="ewald">  -7516.65068416 </i>
    <i name="hartreedc">   -313.82601823 </i>
    <i name="XCdc">   -548.74118977 </i>
    <i name="pawpsdc">   5598.62625415 </i>
    <i name="pawaedc">  -4492.17844134 </i>
    <i name="eentropy">     -0.00590502 </i>
    <i name="bandstr">   1165.06436196 </i>
    <i name="atom">   6564.79586099 </i>
    <i name="e_fr_energy">    573.93876189 </i>
    <i name="e_wo_entrp">    573.94466690 </i>
    <i name="e_0_energy">    573.94073023 </i>
   </energy>
  </scstep>
  <scstep>
   <time name="dav">    1.32    1.33</time>
   <time name="total">    1.32    1.33</time>
   <energy>
    <i name="e_fr_energy">   -309.64878897 </i>
    <i name="e_wo_entrp">   -309.63966026 </i>
    <i name="e_0_energy">   -309.64574606 </i>
   </energy>
  </scstep>
  <scstep>
   <time name="dav">    1.34    1.35</time>
   <time name="total">    1.34    1.35</time>
   <energy>
    <i name="e_fr_energy">   -371.78587741 </i>
    <i name="e_wo_entrp">   -371.79478060 </i>
    <i name="e_0_energy">   -371.78884514 </i>
   </energy>
  </scstep>
  <scstep>
   <time name="dav">    1.33    1.34</time>
   <time name="total">    1.33    1.34</time>
   <energy>
    <i name="e_fr_energy">   -373.36796845 </i>
    <i name="e_wo_entrp">   -373.37619873 </i>
    <i name="e_0_energy">   -373.37071187 </i>
   </energy>
  </scstep>
  <scstep>
   <time name="dav">    1.32    1.34</time>
   <time name="total">    1.58    1.60</time>
   <energy>
    <i name="e_fr_energy">   -373.41717994 </i>
    <i name="e_wo_entrp">   -373.42538582 </i>
    <i name="e_0_energy">   -373.41991523 </i>
   </energy>
  </scstep>
  <scstep>
   <time name="diag">    0.13    0.13</time>
   <time name="diis">    0.70    0.70</time>
   <time name="orth">    0.02    0.02</time>
   <time name="total">    1.24    1.26</time>
   <energy>
    <i name="e_fr_energy">   -367.07878116 </i>
    <i name="e_wo_entrp">   -367.10293802 </i>
    <i name="e_0_energy">   -367.08683344 </i>
   </energy>
  </scstep>
  <scstep>
   <time name="diag">    0.13    0.13</time>
   <time name="diis">    0.70    0.70</time>
   <time name="orth">    0.02    0.02</time>
   <time name="total">    1.24    1.26</time>
   <energy>
    <i name="e_fr_energy">   -364.36914830 </i>
    <i name="e_wo_entrp">   -364.38515744 </i>
    <i name="e_0_energy">   -364.37448468 </i>
   </energy>
  </scstep>
  <scstep>
   <time name="diag">    0.14    0.14</time>
   <time name="diis">    0.72    0.72</time>
   <time name="orth">    0.02    0.02</time>
   <time name="total">    1.27    1.29</time>
   <energy>
    <i name="e_fr_energy">   -364.39909272 </i>
    <i name="e_wo_entrp">   -364.41784661 </i>
    <i name="e_0_energy">   -364.40534402 </i>
   </energy>
  </scstep>
  <scstep>
   <time name="diag">    0.13    0.13</time>
   <time name="diis">    0.72    0.72</time>
   <time name="orth">    0.02    0.02</time>
   <time name="total">    1.26    1.28</time>
   <energy>
    <i name="e_fr_energy">   -364.42330034 </i>
    <i name="e_wo_entrp">   -364.44120532 </i>
    <i name="e_0_energy">   -364.42926867 </i>
   </energy>
  </scstep>
  <scstep>
   <time name="diag">    0.13    0.13</time>
   <time name="diis">    0.72    0.72</time>
   <time name="orth">    0.02    0.02</time>
   <time name="total">    1.26    1.28</time>
   <energy>
    <i name="e_fr_energy">   -364.42903392 </i>
    <i name="e_wo_entrp">   -364.44682030 </i>
    <i name="e_0_energy">   -364.43496272 </i>
   </energy>
  </scstep>
  <scstep>
   <time name="diag">    0.13    0.13</time>
   <time name="diis">    0.72    0.72</time>
   <time name="orth">    0.02    0.02</time>
   <time name="total">    1.27    1.28</time>
   <energy>
    <i name="e_fr_energy">   -364.42286599 </i>
    <i name="e_wo_entrp">   -364.44161906 </i>
    <i name="e_0_energy">   -364.42911701 </i>
   </energy>
  </scstep>
  <scstep>
   <time name="diag">    0.14    0.14</time>
   <time name="diis">    0.69    0.70</time>
   <time name="orth">    0.02    0.02</time>
   <time name="total">    1.25    1.26</time>
   <energy>
    <i name="e_fr_energy">   -364.42308562 </i>
    <i name="e_wo_entrp">   -364.44185128 </i>
    <i name="e_0_energy">   -364.42934084 </i>
   </energy>
  </scstep>
  <scstep>
   <time name="diag">    0.13    0.13</time>
   <time name="diis">    0.72    0.73</time>
   <time name="orth">    0.02    0.02</time>
   <time name="total">    1.26    1.31</time>
   <energy>
    <i name="e_fr_energy">   -364.42315422 </i>
    <i name="e_wo_entrp">   -364.44192264 </i>
    <i name="e_0_energy">   -364.42941036 </i>
   </energy>
  </scstep>
  <scstep>
   <time name="diag">    0.13    0.13</time>
   <time name="diis">    0.70    0.70</time>
   <time name="orth">    0.02    0.02</time>
   <time name="total">    1.24    1.26</time>
   <energy>
    <i name="e_fr_energy">   -364.42314547 </i>
    <i name="e_wo_entrp">   -364.44190972 </i>
    <i name="e_0_energy">   -364.42940022 </i>
   </energy>
  </scstep>
  <scstep>
   <time name="diag">    0.13    0.13</time>
   <time name="diis">    0.70    0.70</time>
   <time name="orth">    0.02    0.02</time>
   <time name="total">    1.24    1.26</time>
   <energy>
    <i name="e_fr_energy">   -364.42317660 </i>
    <i name="e_wo_entrp">   -364.44196765 </i>
    <i name="e_0_energy">   -364.42944028 </i>
   </energy>
  </scstep>
  <scstep>
   <time name="diag">    0.13    0.13</time>
   <time name="diis">    0.68    0.69</time>
   <time name="orth">    0.02    0.02</time>
   <time name="total">    1.23    1.25</time>
   <energy>
    <i name="e_fr_energy">   -364.42319128 </i>
    <i name="e_wo_entrp">   -364.44199013 </i>
    <i name="e_0_energy">   -364.42945756 </i>
   </energy>
  </scstep>
  <scstep>
   <time name="diag">    0.13    0.13</time>
   <time name="diis">    0.69    0.69</time>
   <time name="orth">    0.02    0.02</time>
   <time name="total">    1.25    1.26</time>
   <energy>
    <i name="e_fr_energy">   -364.42320024 </i>
    <i name="e_wo_entrp">   -364.44200396 </i>
    <i name="e_0_energy">   -364.42946814 </i>
   </energy>
  </scstep>
  <scstep>
   <time name="diag">    0.13    0.13</time>
   <time name="diis">    0.48    0.48</time>
   <time name="orth">    0.02    0.02</time>
   <time name="total">    1.02    1.04</time>
   <energy>
    <i name="e_fr_energy">   -364.42319875 </i>
    <i name="e_wo_entrp">   -364.44200667 </i>
    <i name="e_0_energy">   -364.42946806 </i>
   </energy>
  </scstep>
  <scstep>
   <time name="diag">    0.13    0.13</time>
   <time name="diis">    0.45    0.45</time>
   <time name="orth">    0.02    0.02</time>
   <time name="total">    0.76    0.77</time>
   <energy>
    <i name="alphaZ">    116.85452330 </i>
    <i name="ewald">  -7516.65068416 </i>
    <i name="hartreedc">   -437.71276864 </i>
    <i name="XCdc">   -527.66634327 </i>
    <i name="pawpsdc">  33223.07646242 </i>
    <i name="pawaedc"> -32125.69097625 </i>
    <i name="eentropy">      0.01880730 </i>
    <i name="bandstr">    338.55191947 </i>
    <i name="atom">   6564.79586099 </i>
    <i name="e_fr_energy">   -364.42319884 </i>
    <i name="e_wo_entrp">   -364.44200614 </i>
    <i name="e_0_energy">   -364.42946794 </i>
   </energy>
  </scstep>
  <structure>
   <crystal>
    <varray name="basis" >
     <v>      10.42609754      -0.10638902       0.00000000 </v>
     <v>      -0.10638902      10.63887557       0.00000000 </v>
     <v>       0.00000000       0.00000000      10.63887557 </v>
    </varray>
    <i name="volume">   1179.96445374 </i>
    <varray name="rec_basis" >
     <v>       0.09592295       0.00095923       0.00000000 </v>
     <v>       0.00095923       0.09400449       0.00000000 </v>
     <v>       0.00000000       0.00000000       0.09399490 </v>
    </varray>
   </crystal>
   <varray name="positions" >
    <v>       0.00000000       0.00000000       0.00000000 </v>
    <v>       0.00000000       0.00000000       0.50000000 </v>
    <v>       0.00000000       0.50000000       0.00000000 </v>
    <v>       0.00000000       0.50000000       0.50000000 </v>
    <v>       0.50000000       0.00000000       0.00000000 </v>
    <v>       0.50000000       0.00000000       0.50000000 </v>
    <v>       0.50000000       0.50000000       0.00000000 </v>
    <v>       0.50000000       0.50000000       0.50000000 </v>
    <v>       0.37500000       0.37500000       0.12500000 </v>
    <v>       0.37500000       0.37500000       0.62500000 </v>
    <v>       0.37500000       0.87500000       0.12500000 </v>
    <v>       0.37500000       0.87500000       0.62500000 </v>
    <v>       0.87500000       0.37500000       0.12500000 </v>
    <v>       0.87500000       0.37500000       0.62500000 </v>
    <v>       0.87500000       0.87500000       0.12500000 </v>
    <v>       0.87500000       0.87500000       0.62500000 </v>
    <v>       0.00000000       0.25000000       0.25000000 </v>
    <v>       0.00000000       0.25000000       0.75000000 </v>
    <v>       0.00000000       0.75000000       0.25000000 </v>
    <v>       0.00000000       0.75000000       0.75000000 </v>
    <v>       0.50000000       0.25000000       0.25000000 </v>
    <v>       0.50000000       0.25000000       0.75000000 </v>
    <v>       0.50000000       0.75000000       0.25000000 </v>
    <v>       0.50000000       0.75000000       0.75000000 </v>
    <v>       0.37500000       0.12500000       0.37500000 </v>
    <v>       0.37500000       0.12500000       0.87500000 </v>
    <v>       0.37500000       0.62500000       0.37500000 </v>
    <v>       0.37500000       0.62500000       0.87500000 </v>
    <v>       0.87500000       0.12500000       0.37500000 </v>
    <v>       0.87500000       0.12500000       0.87500000 </v>
    <v>       0.87500000       0.62500000       0.37500000 </v>
    <v>       0.87500000       0.62500000       0.87500000 </v>
    <v>       0.25000000       0.00000000       0.25000000 </v>
    <v>       0.25000000       0.00000000       0.75000000 </v>
    <v>       0.25000000       0.50000000       0.25000000 </v>
    <v>       0.25000000       0.50000000       0.75000000 </v>
    <v>       0.75000000       0.00000000       0.25000000 </v>
    <v>       0.75000000       0.00000000       0.75000000 </v>
    <v>       0.75000000       0.50000000       0.25000000 </v>
    <v>       0.75000000       0.50000000       0.75000000 </v>
    <v>       0.12500000       0.37500000       0.37500000 </v>
    <v>       0.12500000       0.37500000       0.87500000 </v>
    <v>       0.12500000       0.87500000       0.37500000 </v>
    <v>       0.12500000       0.87500000       0.87500000 </v>
    <v>       0.62500000       0.37500000       0.37500000 </v>
    <v>       0.62500000       0.37500000       0.87500000 </v>
    <v>       0.62500000       0.87500000       0.37500000 </v>
    <v>       0.62500000       0.87500000       0.87500000 </v>
    <v>       0.25000000       0.25000000       0.00000000 </v>
    <v>       0.25000000       0.25000000       0.50000000 </v>
    <v>       0.25000000       0.75000000       0.00000000 </v>
    <v>       0.25000000       0.75000000       0.50000000 </v>
    <v>       0.75000000       0.25000000       0.00000000 </v>
    <v>       0.75000000       0.25000000       0.50000000 </v>
    <v>       0.75000000       0.75000000       0.00000000 </v>
    <v>       0.75000000       0.75000000       0.50000000 </v>
    <v>       0.12500000       0.12500000       0.12500000 </v>
    <v>       0.12500000       0.12500000       0.62500000 </v>
    <v>       0.12500000       0.62500000       0.12500000 </v>
    <v>       0.12500000       0.62500000       0.62500000 </v>
    <v>       0.62500000       0.12500000       0.12500000 </v>
    <v>       0.62500000       0.12500000       0.62500000 </v>
    <v>       0.62500000       0.62500000       0.12500000 </v>
    <v>       0.62500000       0.62500000       0.62500000 </v>
   </varray>
  </structure>
  <varray name="forces" >
   <v>       0.00000000      -0.00000000      -0.28499102 </v>
   <v>       0.00000000      -0.00000000      -0.28499102 </v>
   <v>      -0.00000000      -0.00000000      -0.28499102 </v>
   <v>      -0.00000000      -0.00000000      -0.28499102 </v>
   <v>       0.00000000       0.00000000      -0.28499102 </v>
   <v>       0.00000000       0.00000000      -0.28499102 </v>
   <v>       0.00000000      -0.00000000      -0.28499102 </v>
   <v>      -0.00000000      -0.00000000      -0.28499102 </v>
   <v>      -0.00000000       0.00000000       0.28499102 </v>
   <v>       0.00000000       0.00000000       0.28499102 </v>
   <v>       0.00000000      -0.00000000       0.28499102 </v>
   <v>      -0.00000000      -0.00000000       0.28499102 </v>
   <v>      -0.00000000       0.00000000       0.28499102 </v>
   <v>      -0.00000000       0.00000000       0.28499102 </v>
   <v>       0.00000000      -0.00000000       0.28499102 </v>
   <v>       0.00000000      -0.00000000       0.28499102 </v>
   <v>      -0.00000000      -0.00000000      -0.28499102 </v>
   <v>      -0.00000000       0.00000000      -0.28499102 </v>
   <v>      -0.00000000      -0.00000000      -0.28499102 </v>
   <v>       0.00000000       0.00000000      -0.28499102 </v>
   <v>       0.00000000       0.00000000      -0.28499102 </v>
   <v>      -0.00000000       0.00000000      -0.28499102 </v>
   <v>       0.00000000      -0.00000000      -0.28499102 </v>
   <v>       0.00000000      -0.00000000      -0.28499102 </v>
   <v>      -0.00000000      -0.00000000       0.28499102 </v>
   <v>      -0.00000000      -0.00000000       0.28499102 </v>
   <v>      -0.00000000       0.00000000       0.28499102 </v>
   <v>       0.00000000       0.00000000       0.28499102 </v>
   <v>      -0.00000000      -0.00000000       0.28499102 </v>
   <v>       0.00000000      -0.00000000       0.28499102 </v>
   <v>       0.00000000       0.00000000       0.28499102 </v>
   <v>       0.00000000       0.00000000       0.28499102 </v>
   <v>      -0.00000000       0.00000000      -0.28499102 </v>
   <v>      -0.00000000       0.00000000      -0.28499102 </v>
   <v>      -0.00000000      -0.00000000      -0.28499102 </v>
   <v>      -0.00000000      -0.00000000      -0.28499102 </v>
   <v>       0.00000000       0.00000000      -0.28499102 </v>
   <v>       0.00000000       0.00000000      -0.28499102 </v>
   <v>      -0.00000000      -0.00000000      -0.28499102 </v>
   <v>      -0.00000000       0.00000000      -0.28499102 </v>
   <v>       0.00000000       0.00000000       0.28499102 </v>
   <v>       0.00000000       0.00000000       0.28499102 </v>
   <v>       0.00000000      -0.00000000       0.28499102 </v>
   <v>      -0.00000000      -0.00000000       0.28499102 </v>
   <v>      -0.00000000      -0.00000000       0.28499102 </v>
   <v>      -0.00000000       0.00000000       0.28499102 </v>
   <v>       0.00000000       0.00000000       0.28499102 </v>
   <v>       0.00000000      -0.00000000       0.28499102 </v>
   <v>      -0.00000000       0.00000000      -0.28499102 </v>
   <v>      -0.00000000       0.00000000      -0.28499102 </v>
   <v>      -0.00000000      -0.00000000      -0.28499102 </v>
   <v>      -0.00000000      -0.00000000      -0.28499102 </v>
   <v>       0.00000000      -0.00000000      -0.28499102 </v>
   <v>      -0.00000000       0.00000000      -0.28499102 </v>
   <v>       0.00000000       0.00000000      -0.28499102 </v>
   <v>      -0.00000000      -0.00000000      -0.28499102 </v>
   <v>      -0.00000000      -0.00000000       0.28499102 </v>
   <v>      -0.00000000      -0.00000000       0.28499102 </v>
   <v>      -0.00000000       0.00000000       0.28499102 </v>
   <v>       0.00000000       0.00000000       0.28499102 </v>
   <v>      -0.00000000      -0.00000000       0.28499102 </v>
   <v>       0.00000000      -0.00000000       0.28499102 </v>
   <v>       0.00000000       0.00000000       0.28499102 </v>
   <v>       0.00000000       0.00000000       0.28499102 </v>
  </varray>
  <varray name="stress" >
   <v>     106.18482839      26.21187169       0.00000000 </v>
   <v>      26.21187172      90.74233825       0.00000000 </v>
   <v>       0.00000000       0.00000000      90.62938197 </v>
  </varray>
  <energy>
   <i name="e_fr_energy">   -364.42319884 </i>
   <i name="e_wo_entrp">   -364.44200614 </i>
   <i name="e_0_energy">   -364.42946794 </i>
  </energy>
  <time name="totalsc">   27.45   27.87</time>
 </calculation>
 <calculation>
  <scstep>
   <time name="dav">    1.28    1.28</time>
   <time name="total">    1.67    1.67</time>
   <energy>
    <i name="alphaZ">    116.85452330 </i>
    <i name="ewald">  -7517.79958830 </i>
    <i name="hartreedc">   -437.10862867 </i>
    <i name="XCdc">   -527.68976445 </i>
    <i name="pawpsdc">  33228.90145458 </i>
    <i name="pawaedc"> -32131.51562410 </i>
    <i name="eentropy">      0.01063983 </i>
    <i name="bandstr">    339.07833534 </i>
    <i name="atom">   6564.79586099 </i>
    <i name="e_fr_energy">   -364.47279147 </i>
    <i name="e_wo_entrp">   -364.48343131 </i>
    <i name="e_0_energy">   -364.47633808 </i>
   </energy>
  </scstep>
  <scstep>
   <time name="diag">    0.13    0.13</time>
   <time name="diis">    0.69    0.69</time>
   <time name="orth">    0.02    0.02</time>
   <time name="total">    1.25    1.27</time>
   <energy>
    <i name="e_fr_energy">   -364.48844770 </i>
    <i name="e_wo_entrp">   -364.49912502 </i>
    <i name="e_0_energy">   -364.49200681 </i>
   </energy>
  </scstep>
  <scstep>
   <time name="diag">    0.13    0.13</time>
   <time name="diis">    0.71    0.71</time>
   <time name="orth">    0.02    0.02</time>
   <time name="total">    1.26    1.28</time>
   <energy>
    <i name="e_fr_energy">   -364.48976430 </i>
    <i name="e_wo_entrp">   -364.50066102 </i>
    <i name="e_0_energy">   -364.49339654 </i>
   </energy>
  </scstep>
  <scstep>
   <time name="diag">    0.13    0.13</time>
   <time name="diis">    0.70    0.70</time>
   <time name="orth">    0.02    0.02</time>
   <time name="total">    1.24    1.26</time>
   <energy>
    <i name="e_fr_energy">   -364.48965554 </i>
    <i name="e_wo_entrp">   -364.50071543 </i>
    <i name="e_0_energy">   -364.49334217 </i>
   </energy>
  </scstep>
  <scstep>
   <time name="diag">    0.13    0.13</time>
   <time name="diis">    0.71    0.71</time>
   <time name="orth">    0.02    0.02</time>
   <time name="total">    1.25    1.27</time>
   <energy>
    <i name="e_fr_energy">   -364.48968549 </i>
    <i name="e_wo_entrp">   -364.50080378 </i>
    <i name="e_0_energy">   -364.49339158 </i>
   </energy>
  </scstep>
  <scstep>
   <time name="diag">    0.13    0.13</time>
   <time name="diis">    0.73    0.73</time>
   <time name="orth">    0.02    0.02</time>
   <time name="total">    1.27    1.29</time>
   <energy>
    <i name="e_fr_energy">   -364.48969860 </i>
    <i name="e_wo_entrp">   -364.50081427 </i>
    <i name="e_0_energy">   -364.49340383 </i>
   </energy>
  </scstep>
  <scstep>
   <time name="diag">    0.13    0.13</time>
   <time name="diis">    0.71    0.71</time>
   <time name="orth">    0.02    0.02</time>
   <time name="total">    1.25    1.26</time>
   <energy>
    <i name="e_fr_energy">   -364.48970067 </i>
    <i name="e_wo_entrp">   -364.50081516 </i>
    <i name="e_0_energy">   -364.49340550 </i>
   </energy>
  </scstep>
  <scstep>
   <time name="diag">    0.13    0.13</time>
   <time name="diis">    0.51    0.52</time>
   <time name="orth">    0.02    0.02</time>
   <time name="total">    0.81    0.84</time>
   <energy>
    <i name="alphaZ">    116.85452330 </i>
    <i name="ewald">  -7517.79958830 </i>
    <i name="hartreedc">   -436.72764627 </i>
    <i name="XCdc">   -527.74539055 </i>
    <i name="pawpsdc">  33165.36544612 </i>
    <i name="pawaedc"> -32067.94838361 </i>
    <i name="eentropy">      0.01111490 </i>
    <i name="bandstr">    338.70436253 </i>
    <i name="atom">   6564.79586099 </i>
    <i name="e_fr_energy">   -364.48970087 </i>
    <i name="e_wo_entrp">   -364.50081578 </i>
    <i name="e_0_energy">   -364.49340584 </i>
   </energy>
  </scstep>
  <structure>
   <crystal>
    <varray name="basis" >
     <v>      10.42609754      -0.10638902       0.00000000 </v>
     <v>      -0.10638902      10.63887557       0.00000000 </v>
     <v>       0.00000000       0.00000000      10.63887557 </v>
    </varray>
    <i name="volume">   1179.96445374 </i>
    <varray name="rec_basis" >
     <v>       0.09592295       0.00095923       0.00000000 </v>
     <v>       0.00095923       0.09400449       0.00000000 </v>
     <v>       0.00000000       0.00000000       0.09399490 </v>
    </varray>
   </crystal>
   <varray name="positions" >
    <v>       0.00000000       1.00000000       0.99870769 </v>
    <v>       0.00000000       1.00000000       0.49870769 </v>
    <v>       1.00000000       0.50000000       0.99870769 </v>
    <v>       1.00000000       0.50000000       0.49870769 </v>
    <v>       0.50000000       0.00000000       0.99870769 </v>
    <v>       0.50000000       0.00000000       0.49870769 </v>
    <v>       0.50000000       0.50000000       0.99870769 </v>
    <v>       0.50000000       0.50000000       0.49870769 </v>
    <v>       0.37500000       0.37500000       0.12629231 </v>
    <v>       0.37500000       0.37500000       0.62629231 </v>
    <v>       0.37500000       0.87500000       0.12629231 </v>
    <v>       0.37500000       0.87500000       0.62629231 </v>
    <v>       0.87500000       0.37500000       0.12629231 </v>
    <v>       0.87500000       0.37500000       0.62629231 </v>
    <v>       0.87500000       0.87500000       0.12629231 </v>
    <v>       0.87500000       0.87500000       0.62629231 </v>
    <v>       1.00000000       0.25000000       0.24870769 </v>
    <v>       1.00000000       0.25000000       0.74870769 </v>
    <v>       1.00000000       0.75000000       0.24870769 </v>
    <v>       0.00000000       0.75000000       0.74870769 </v>
    <v>       0.50000000       0.25000000       0.24870769 </v>
    <v>       0.50000000       0.25000000       0.74870769 </v>
    <v>       0.50000000       0.75000000       0.24870769 </v>
    <v>       0.50000000       0.75000000       0.74870769 </v>
    <v>       0.37500000       0.12500000       0.37629231 </v>
    <v>       0.37500000       0.12500000       0.87629231 </v>
    <v>       0.37500000       0.62500000       0.37629231 </v>
    <v>       0.37500000       0.62500000       0.87629231 </v>
    <v>       0.87500000       0.12500000       0.37629231 </v>
    <v>       0.87500000       0.12500000       0.87629231 </v>
    <v>       0.87500000       0.62500000       0.37629231 </v>
    <v>       0.87500000       0.62500000       0.87629231 </v>
    <v>       0.25000000       0.00000000       0.24870769 </v>
    <v>       0.25000000       0.00000000       0.74870769 </v>
    <v>       0.25000000       0.50000000       0.24870769 </v>
    <v>       0.25000000       0.50000000       0.74870769 </v>
    <v>       0.75000000       0.00000000       0.24870769 </v>
    <v>       0.75000000       0.00000000       0.74870769 </v>
    <v>       0.75000000       0.50000000       0.24870769 </v>
    <v>       0.75000000       0.50000000       0.74870769 </v>
    <v>       0.12500000       0.37500000       0.37629231 </v>
    <v>       0.12500000       0.37500000       0.87629231 </v>
    <v>       0.12500000       0.87500000       0.37629231 </v>
    <v>       0.12500000       0.87500000       0.87629231 </v>
    <v>       0.62500000       0.37500000       0.37629231 </v>
    <v>       0.62500000       0.37500000       0.87629231 </v>
    <v>       0.62500000       0.87500000       0.37629231 </v>
    <v>       0.62500000       0.87500000       0.87629231 </v>
    <v>       0.25000000       0.25000000       0.99870769 </v>
    <v>       0.25000000       0.25000000       0.49870769 </v>
    <v>       0.25000000       0.75000000       0.99870769 </v>
    <v>       0.25000000       0.75000000       0.49870769 </v>
    <v>       0.75000000       0.25000000       0.99870769 </v>
    <v>       0.75000000       0.25000000       0.49870769 </v>
    <v>       0.75000000       0.75000000       0.99870769 </v>
    <v>       0.75000000       0.75000000       0.49870769 </v>
    <v>       0.12500000       0.12500000       0.12629231 </v>
    <v>       0.12500000       0.12500000       0.62629231 </v>
    <v>       0.12500000       0.62500000       0.12629231 </v>
    <v>       0.12500000       0.62500000       0.62629231 </v>
    <v>       0.62500000       0.12500000       0.12629231 </v>
    <v>       0.62500000       0.12500000       0.62629231 </v>
    <v>       0.62500000       0.62500000       0.12629231 </v>
    <v>       0.62500000       0.62500000       0.62629231 </v>
   </varray>
  </structure>
  <varray name="forces" >
   <v>      -0.00000000       0.00000000       0.13389764 </v>
   <v>      -0.00000000       0.00000000       0.13389764 </v>
   <v>       0.00000000      -0.00000000       0.13389764 </v>
   <v>       0.00000000      -0.00000000       0.13389764 </v>
   <v>      -0.00000000       0.00000000       0.13389764 </v>
   <v>      -0.00000000      -0.00000000       0.13389764 </v>
   <v>       0.00000000      -0.00000000       0.13389764 </v>
   <v>       0.00000000      -0.00000000       0.13389764 </v>
   <v>      -0.00000000      -0.00000000      -0.13389764 </v>
   <v>      -0.00000000       0.00000000      -0.13389764 </v>
   <v>       0.00000000       0.00000000      -0.13389764 </v>
   <v>      -0.00000000       0.00000000      -0.13389764 </v>
   <v>      -0.00000000       0.00000000      -0.13389764 </v>
   <v>      -0.00000000      -0.00000000      -0.13389764 </v>
   <v>       0.00000000       0.00000000      -0.13389764 </v>
   <v>       0.00000000      -0.00000000      -0.13389764 </v>
   <v>       0.00000000      -0.00000000       0.13389764 </v>
   <v>      -0.00000000       0.00000000       0.13389764 </v>
   <v>      -0.00000000      -0.00000000       0.13389764 </v>
   <v>       0.00000000      -0.00000000       0.13389764 </v>
   <v>      -0.00000000       0.00000000       0.13389764 </v>
   <v>       0.00000000       0.00000000       0.13389764 </v>
   <v>       0.00000000       0.00000000       0.13389764 </v>
   <v>       0.00000000       0.00000000       0.13389764 </v>
   <v>       0.00000000       0.00000000      -0.13389764 </v>
   <v>       0.00000000      -0.00000000      -0.13389764 </v>
   <v>      -0.00000000      -0.00000000      -0.13389764 </v>
   <v>      -0.00000000      -0.00000000      -0.13389764 </v>
   <v>       0.00000000       0.00000000      -0.13389764 </v>
   <v>       0.00000000      -0.00000000      -0.13389764 </v>
   <v>      -0.00000000       0.00000000      -0.13389764 </v>
   <v>      -0.00000000      -0.00000000      -0.13389764 </v>
   <v>      -0.00000000      -0.00000000       0.13389764 </v>
   <v>      -0.00000000      -0.00000000       0.13389764 </v>
   <v>       0.00000000      -0.00000000       0.13389764 </v>
   <v>       0.00000000      -0.00000000       0.13389764 </v>
   <v>      -0.00000000       0.00000000       0.13389764 </v>
   <v>      -0.00000000       0.00000000       0.13389764 </v>
   <v>       0.00000000      -0.00000000       0.13389764 </v>
   <v>       0.00000000      -0.00000000       0.13389764 </v>
   <v>      -0.00000000       0.00000000      -0.13389764 </v>
   <v>      -0.00000000      -0.00000000      -0.13389764 </v>
   <v>       0.00000000       0.00000000      -0.13389764 </v>
   <v>       0.00000000       0.00000000      -0.13389764 </v>
   <v>      -0.00000000      -0.00000000      -0.13389764 </v>
   <v>      -0.00000000      -0.00000000      -0.13389764 </v>
   <v>       0.00000000       0.00000000      -0.13389764 </v>
   <v>       0.00000000       0.00000000      -0.13389764 </v>
   <v>      -0.00000000       0.00000000       0.13389764 </v>
   <v>      -0.00000000       0.00000000       0.13389764 </v>
   <v>       0.00000000      -0.00000000       0.13389764 </v>
   <v>       0.00000000       0.00000000       0.13389764 </v>
   <v>       0.00000000       0.00000000       0.13389764 </v>
   <v>      -0.00000000       0.00000000       0.13389764 </v>
   <v>      -0.00000000      -0.00000000       0.13389764 </v>
   <v>       0.00000000       0.00000000       0.13389764 </v>
   <v>       0.00000000      -0.00000000      -0.13389764 </v>
   <v>       0.00000000      -0.00000000      -0.13389764 </v>
   <v>      -0.00000000      -0.00000000      -0.13389764 </v>
   <v>      -0.00000000       0.00000000      -0.13389764 </v>
   <v>       0.00000000      -0.00000000      -0.13389764 </v>
   <v>       0.00000000      -0.00000000      -0.13389764 </v>
   <v>      -0.00000000       0.00000000      -0.13389764 </v>
   <v>      -0.00000000       0.00000000      -0.13389764 </v>
  </varray>
  <varray name="stress" >
   <v>     104.89554970       9.14432126       0.00000000 </v>
   <v>       9.14432125      90.04019456       0.00000000 </v>
   <v>       0.00000000       0.00000000      89.47539324 </v>
  </varray>
  <energy>
   <i name="e_fr_energy">   -364.48970087 </i>
   <i name="e_wo_entrp">   -364.50081578 </i>
   <i name="e_0_energy">   -364.49340584 </i>
  </energy>
  <time name="totalsc">   13.62   13.77</time>
 </calculation>
 <calculation>
  <scstep>
   <time name="dav">    1.24    1.24</time>
   <time name="total">    1.63    1.63</time>
   <energy>
    <i name="alphaZ">    116.85452330 </i>
    <i name="ewald">  -7517.50320646 </i>
    <i name="hartreedc">   -436.90550826 </i>
    <i name="XCdc">   -527.73693828 </i>
    <i name="pawpsdc">  33164.59782286 </i>
    <i name="pawaedc"> -32067.18069969 </i>
    <i name="eentropy">      0.01393425 </i>
    <i name="bandstr">    338.55733169 </i>
    <i name="atom">   6564.79586099 </i>
    <i name="e_fr_energy">   -364.50687960 </i>
    <i name="e_wo_entrp">   -364.52081385 </i>
    <i name="e_0_energy">   -364.51152435 </i>
   </energy>
  </scstep>
  <scstep>
   <time name="diag">    0.13    0.13</time>
   <time name="diis">    0.71    0.71</time>
   <time name="orth">    0.02    0.02</time>
   <time name="total">    1.26    1.27</time>
   <energy>
    <i name="e_fr_energy">   -364.50843199 </i>
    <i name="e_wo_entrp">   -364.52233152 </i>
    <i name="e_0_energy">   -364.51306517 </i>
   </energy>
  </scstep>
  <scstep>
   <time name="diag">    0.13    0.13</time>
   <time name="diis">    0.71    0.71</time>
   <time name="orth">    0.02    0.02</time>
   <time name="total">    1.25    1.27</time>
   <energy>
    <i name="e_fr_energy">   -364.50856029 </i>
    <i name="e_wo_entrp">   -364.52234936 </i>
    <i name="e_0_energy">   -364.51315665 </i>
   </energy>
  </scstep>
  <scstep>
   <time name="diag">    0.13    0.13</time>
   <time name="diis">    0.70    0.70</time>
   <time name="orth">    0.02    0.02</time>
   <time name="total">    1.24    1.26</time>
   <energy>
    <i name="e_fr_energy">   -364.50855084 </i>
    <i name="e_wo_entrp">   -364.52226983 </i>
    <i name="e_0_energy">   -364.51312384 </i>
   </energy>
  </scstep>
  <scstep>
   <time name="diag">    0.13    0.13</time>
   <time name="diis">    0.72    0.72</time>
   <time name="orth">    0.02    0.02</time>
   <time name="total">    1.26    1.28</time>
   <energy>
    <i name="e_fr_energy">   -364.50855399 </i>
    <i name="e_wo_entrp">   -364.52224903 </i>
    <i name="e_0_energy">   -364.51311900 </i>
   </energy>
  </scstep>
  <scstep>
   <time name="diag">    0.13    0.13</time>
   <time name="diis">    0.63    0.63</time>
   <time name="orth">    0.02    0.02</time>
   <time name="total">    1.18    1.20</time>
   <energy>
    <i name="e_fr_energy">   -364.50855505 </i>
    <i name="e_wo_entrp">   -364.52225092 </i>
    <i name="e_0_energy">   -364.51312034 </i>
   </energy>
  </scstep>
  <scstep>
   <time name="diag">    0.13    0.13</time>
   <time name="diis">    0.48    0.49</time>
   <time name="orth">    0.02    0.02</time>
   <time name="total">    1.03    1.05</time>
   <energy>
    <i name="e_fr_energy">   -364.50855529 </i>
    <i name="e_wo_entrp">   -364.52225221 </i>
    <i name="e_0_energy">   -364.51312093 </i>
   </energy>
  </scstep>
  <scstep>
   <time name="diag">    0.13    0.13</time>
   <time name="diis">    0.44    0.45</time>
   <time name="orth">    0.02    0.02</time>
   <time name="total">    0.76    0.76</time>
   <energy>
    <i name="alphaZ">    116.85452330 </i>
    <i name="ewald">  -7517.50320646 </i>
    <i name="hartreedc">   -437.05964235 </i>
    <i name="XCdc">   -527.71658230 </i>
    <i name="pawpsdc">  33184.14014978 </i>
    <i name="pawaedc"> -32086.73231012 </i>
    <i name="eentropy">      0.01369680 </i>
    <i name="bandstr">    338.69895499 </i>
    <i name="atom">   6564.79586099 </i>
    <i name="e_fr_energy">   -364.50855536 </i>
    <i name="e_wo_entrp">   -364.52225216 </i>
    <i name="e_0_energy">   -364.51312096 </i>
   </energy>
  </scstep>
  <structure>
   <crystal>
    <varray name="basis" >
     <v>      10.42609754      -0.10638902       0.00000000 </v>
     <v>      -0.10638902      10.63887557       0.00000000 </v>
     <v>       0.00000000       0.00000000      10.63887557 </v>
    </varray>
    <i name="volume">   1179.96445374 </i>
    <varray name="rec_basis" >
     <v>       0.09592295       0.00095923       0.00000000 </v>
     <v>       0.00095923       0.09400449       0.00000000 </v>
     <v>       0.00000000       0.00000000       0.09399490 </v>
    </varray>
   </crystal>
   <varray name="positions" >
    <v>       0.00000000       0.00000000       0.99912078 </v>
    <v>       0.00000000       0.00000000       0.49912078 </v>
    <v>       0.00000000       0.50000000       0.99912078 </v>
    <v>       0.00000000       0.50000000       0.49912078 </v>
    <v>       0.50000000       0.00000000       0.99912078 </v>
    <v>       0.50000000       0.00000000       0.49912078 </v>
    <v>       0.50000000       0.50000000       0.99912078 </v>
    <v>       0.50000000       0.50000000       0.49912078 </v>
    <v>       0.37500000       0.37500000       0.12587922 </v>
    <v>       0.37500000       0.37500000       0.62587922 </v>
    <v>       0.37500000       0.87500000       0.12587922 </v>
    <v>       0.37500000       0.87500000       0.62587922 </v>
    <v>       0.87500000       0.37500000       0.12587922 </v>
    <v>       0.87500000       0.37500000       0.62587922 </v>
    <v>       0.87500000       0.87500000       0.12587922 </v>
    <v>       0.87500000       0.87500000       0.62587922 </v>
    <v>       0.00000000       0.25000000       0.24912078 </v>
    <v>       0.00000000       0.25000000       0.74912078 </v>
    <v>       0.00000000       0.75000000       0.24912078 </v>
    <v>       0.00000000       0.75000000       0.74912078 </v>
    <v>       0.50000000       0.25000000       0.24912078 </v>
    <v>       0.50000000       0.25000000       0.74912078 </v>
    <v>       0.50000000       0.75000000       0.24912078 </v>
    <v>       0.50000000       0.75000000       0.74912078 </v>
    <v>       0.37500000       0.12500000       0.37587922 </v>
    <v>       0.37500000       0.12500000       0.87587922 </v>
    <v>       0.37500000       0.62500000       0.37587922 </v>
    <v>       0.37500000       0.62500000       0.87587922 </v>
    <v>       0.87500000       0.12500000       0.37587922 </v>
    <v>       0.87500000       0.12500000       0.87587922 </v>
    <v>       0.87500000       0.62500000       0.37587922 </v>
    <v>       0.87500000       0.62500000       0.87587922 </v>
    <v>       0.25000000       0.00000000       0.24912078 </v>
    <v>       0.25000000       0.00000000       0.74912078 </v>
    <v>       0.25000000       0.50000000       0.24912078 </v>
    <v>       0.25000000       0.50000000       0.74912078 </v>
    <v>       0.75000000       0.00000000       0.24912078 </v>
    <v>       0.75000000       0.00000000       0.74912078 </v>
    <v>       0.75000000       0.50000000       0.24912078 </v>
    <v>       0.75000000       0.50000000       0.74912078 </v>
    <v>       0.12500000       0.37500000       0.37587922 </v>
    <v>       0.12500000       0.37500000       0.87587922 </v>
    <v>       0.12500000       0.87500000       0.37587922 </v>
    <v>       0.12500000       0.87500000       0.87587922 </v>
    <v>       0.62500000       0.37500000       0.37587922 </v>
    <v>       0.62500000       0.37500000       0.87587922 </v>
    <v>       0.62500000       0.87500000       0.37587922 </v>
    <v>       0.62500000       0.87500000       0.87587922 </v>
    <v>       0.25000000       0.25000000       0.99912078 </v>
    <v>       0.25000000       0.25000000       0.49912078 </v>
    <v>       0.25000000       0.75000000       0.99912078 </v>
    <v>       0.25000000       0.75000000       0.49912078 </v>
    <v>       0.75000000       0.25000000       0.99912078 </v>
    <v>       0.75000000       0.25000000       0.49912078 </v>
    <v>       0.75000000       0.75000000       0.99912078 </v>
    <v>       0.75000000       0.75000000       0.49912078 </v>
    <v>       0.12500000       0.12500000       0.12587922 </v>
    <v>       0.12500000       0.12500000       0.62587922 </v>
    <v>       0.12500000       0.62500000       0.12587922 </v>
    <v>       0.12500000       0.62500000       0.62587922 </v>
    <v>       0.62500000       0.12500000       0.12587922 </v>
    <v>       0.62500000       0.12500000       0.62587922 </v>
    <v>       0.62500000       0.62500000       0.12587922 </v>
    <v>       0.62500000       0.62500000       0.62587922 </v>
   </varray>
  </structure>
  <varray name="forces" >
   <v>      -0.00000000       0.00000000       0.00013885 </v>
   <v>      -0.00000000       0.00000000       0.00013885 </v>
   <v>       0.00000000      -0.00000000       0.00013885 </v>
   <v>       0.00000000      -0.00000000       0.00013885 </v>
   <v>      -0.00000000       0.00000000       0.00013885 </v>
   <v>      -0.00000000       0.00000000       0.00013885 </v>
   <v>       0.00000000      -0.00000000       0.00013885 </v>
   <v>       0.00000000      -0.00000000       0.00013885 </v>
   <v>      -0.00000000      -0.00000000      -0.00013885 </v>
   <v>      -0.00000000      -0.00000000      -0.00013885 </v>
   <v>       0.00000000       0.00000000      -0.00013885 </v>
   <v>       0.00000000       0.00000000      -0.00013885 </v>
   <v>      -0.00000000      -0.00000000      -0.00013885 </v>
   <v>      -0.00000000      -0.00000000      -0.00013885 </v>
   <v>       0.00000000       0.00000000      -0.00013885 </v>
   <v>      -0.00000000       0.00000000      -0.00013885 </v>
   <v>      -0.00000000      -0.00000000       0.00013885 </v>
   <v>      -0.00000000      -0.00000000       0.00013885 </v>
   <v>       0.00000000       0.00000000       0.00013885 </v>
   <v>       0.00000000       0.00000000       0.00013885 </v>
   <v>       0.00000000       0.00000000       0.00013885 </v>
   <v>      -0.00000000       0.00000000       0.00013885 </v>
   <v>       0.00000000      -0.00000000       0.00013885 </v>
   <v>       0.00000000      -0.00000000       0.00013885 </v>
   <v>       0.00000000      -0.00000000      -0.00013885 </v>
   <v>       0.00000000      -0.00000000      -0.00013885 </v>
   <v>      -0.00000000       0.00000000      -0.00013885 </v>
   <v>      -0.00000000       0.00000000      -0.00013885 </v>
   <v>       0.00000000       0.00000000      -0.00013885 </v>
   <v>       0.00000000      -0.00000000      -0.00013885 </v>
   <v>      -0.00000000       0.00000000      -0.00013885 </v>
   <v>      -0.00000000      -0.00000000      -0.00013885 </v>
   <v>      -0.00000000       0.00000000       0.00013885 </v>
   <v>      -0.00000000       0.00000000       0.00013885 </v>
   <v>       0.00000000      -0.00000000       0.00013885 </v>
   <v>       0.00000000      -0.00000000       0.00013885 </v>
   <v>      -0.00000000       0.00000000       0.00013885 </v>
   <v>      -0.00000000       0.00000000       0.00013885 </v>
   <v>       0.00000000      -0.00000000       0.00013885 </v>
   <v>       0.00000000      -0.00000000       0.00013885 </v>
   <v>      -0.00000000      -0.00000000      -0.00013885 </v>
   <v>       0.00000000      -0.00000000      -0.00013885 </v>
   <v>       0.00000000       0.00000000      -0.00013885 </v>
   <v>       0.00000000       0.00000000      -0.00013885 </v>
   <v>      -0.00000000      -0.00000000      -0.00013885 </v>
   <v>      -0.00000000      -0.00000000      -0.00013885 </v>
   <v>       0.00000000      -0.00000000      -0.00013885 </v>
   <v>       0.00000000       0.00000000      -0.00013885 </v>
   <v>      -0.00000000      -0.00000000       0.00013885 </v>
   <v>      -0.00000000       0.00000000       0.00013885 </v>
   <v>       0.00000000      -0.00000000       0.00013885 </v>
   <v>       0.00000000      -0.00000000       0.00013885 </v>
   <v>       0.00000000      -0.00000000       0.00013885 </v>
   <v>      -0.00000000       0.00000000       0.00013885 </v>
   <v>       0.00000000       0.00000000       0.00013885 </v>
   <v>       0.00000000       0.00000000       0.00013885 </v>
   <v>       0.00000000       0.00000000      -0.00013885 </v>
   <v>       0.00000000       0.00000000      -0.00013885 </v>
   <v>      -0.00000000       0.00000000      -0.00013885 </v>
   <v>      -0.00000000       0.00000000      -0.00013885 </v>
   <v>       0.00000000      -0.00000000      -0.00013885 </v>
   <v>       0.00000000      -0.00000000      -0.00013885 </v>
   <v>      -0.00000000       0.00000000      -0.00013885 </v>
   <v>      -0.00000000      -0.00000000      -0.00013885 </v>
  </varray>
  <varray name="stress" >
   <v>     105.21454077      14.62703949       0.00000000 </v>
   <v>      14.62703946      90.12906695       0.00000000 </v>
   <v>       0.00000000       0.00000000      89.90859954 </v>
  </varray>
  <energy>
   <i name="e_fr_energy">   -364.50855536 </i>
   <i name="e_wo_entrp">   -364.52225216 </i>
   <i name="e_0_energy">   -364.51312096 </i>
  </energy>
  <time name="totalsc">   13.05   13.20</time>
  <eigenvalues>
   <array>
    <dimension dim="1">band</dimension>
    <dimension dim="2">kpoint</dimension>
    <dimension dim="3">spin</dimension>
    <field>eigene</field>
    <field>occ</field>
    <set>
     <set comment="spin 1">
      <set comment="kpoint 1">
       <r>   -5.9218    1.0000 </r>
       <r>   -4.7704    1.0000 </r>
       <r>   -4.7704    1.0000 </r>
       <r>   -4.7698    1.0000 </r>
       <r>   -4.7698    1.0000 </r>
       <r>   -4.7287    1.0000 </r>
       <r>   -4.7287    1.0000 </r>
       <r>   -3.7449    1.0000 </r>
       <r>   -3.7449    1.0000 </r>
       <r>   -3.7255    1.0000 </r>
       <r>   -3.7255    1.0000 </r>
       <r>   -3.7255    1.0000 </r>
       <r>   -3.7255    1.0000 </r>
       <r>   -3.6953    1.0000 </r>
       <r>   -3.6953    1.0000 </r>
       <r>   -3.6953    1.0000 </r>
       <r>   -3.6952    1.0000 </r>
       <r>   -3.6445    1.0000 </r>
       <r>   -3.6444    1.0000 </r>
       <r>   -3.4041    1.0000 </r>
       <r>   -3.4041    1.0000 </r>
       <r>   -3.3005    1.0000 </r>
       <r>   -3.3005    1.0000 </r>
       <r>   -1.5222    1.0000 </r>
       <r>   -1.4955    1.0000 </r>
       <r>   -1.4955    1.0000 </r>
       <r>   -1.4736    1.0000 </r>
       <r>   -1.3607    1.0000 </r>
       <r>   -1.3607    1.0000 </r>
       <r>   -1.3215    1.0000 </r>
       <r>   -1.3215    1.0000 </r>
       <r>   -1.2756    1.0000 </r>
       <r>   -1.2756    1.0000 </r>
       <r>   -1.2248    1.0000 </r>
       <r>   -1.2248    1.0000 </r>
       <r>   -1.2248    1.0000 </r>
       <r>   -1.2248    1.0000 </r>
       <r>   -1.2172    1.0000 </r>
       <r>   -1.2172    1.0000 </r>
       <r>   -1.1766    1.0000 </r>
       <r>   -1.1766    1.0000 </r>
       <r>   -0.8002    1.0000 </r>
       <r>   -0.8002    1.0000 </r>
       <r>   -0.7388    1.0000 </r>
       <r>   -0.7388    1.0000 </r>
       <r>    0.9489    1.0000 </r>
       <r>    0.9489    1.0000 </r>
       <r>    0.9717    1.0000 </r>
       <r>    0.9717    1.0000 </r>
       <r>    0.9717    1.0000 </r>
       <r>    0.9717    1.0000 </r>
       <r>    0.9982    1.0000 </r>
       <r>    0.9982    1.0000 </r>
       <r>    1.0544    1.0000 </r>
       <r>    1.0544    1.0000 </r>
       <r>    1.0544    1.0000 </r>
       <r>    1.0544    1.0000 </r>
       <r>    2.3479    1.0000 </r>
       <r>    2.3479    1.0000 </r>
       <r>    2.3615    1.0000 </r>
       <r>    2.3615    1.0000 </r>
       <r>    2.3924    1.0000 </r>
       <r>    2.3924    1.0000 </r>
       <r>    2.3924    1.0000 </r>
       <r>    2.3924    1.0000 </r>
       <r>    2.4048    1.0000 </r>
       <r>    2.4048    1.0000 </r>
       <r>    2.4242    1.0000 </r>
       <r>    2.4242    1.0000 </r>
       <r>    2.4663    1.0000 </r>
       <r>    2.4663    1.0000 </r>
       <r>    2.4902    1.0000 </r>
       <r>    2.4902    1.0000 </r>
       <r>    2.4902    1.0000 </r>
       <r>    2.4902    1.0000 </r>
       <r>    2.5045    1.0000 </r>
       <r>    2.5045    1.0000 </r>
       <r>    2.6120    1.0000 </r>
       <r>    2.6120    1.0000 </r>
       <r>    2.6120    1.0000 </r>
       <r>    2.6120    1.0000 </r>
       <r>    3.0908    1.0000 </r>
       <r>    3.0909    1.0000 </r>
       <r>    3.0952    1.0000 </r>
       <r>    3.0952    1.0000 </r>
       <r>    3.2494    1.0000 </r>
       <r>    3.2494    1.0000 </r>
       <r>    3.4515    1.0000 </r>
       <r>    3.4515    1.0000 </r>
       <r>    3.4680    1.0000 </r>
       <r>    3.6191    1.0000 </r>
       <r>    3.6191    1.0000 </r>
       <r>    3.7748    1.0000 </r>
       <r>    4.4892    1.0000 </r>
       <r>    4.4892    1.0000 </r>
       <r>    4.5057    1.0000 </r>
       <r>    4.5057    1.0000 </r>
       <r>    4.5090    1.0000 </r>
       <r>    4.5090    1.0000 </r>
       <r>    4.6127    1.0000 </r>
       <r>    4.6127    1.0000 </r>
       <r>    4.6596    1.0000 </r>
       <r>    4.6596    1.0000 </r>
       <r>    4.7872    1.0000 </r>
       <r>    4.7872    1.0000 </r>
       <r>    5.1121    1.0000 </r>
       <r>    5.1121    1.0000 </r>
       <r>    5.1121    1.0000 </r>
       <r>    5.1121    1.0000 </r>
       <r>    5.1737    1.0000 </r>
       <r>    5.1737    1.0000 </r>
       <r>    5.2295    1.0000 </r>
       <r>    5.2295    1.0000 </r>
       <r>    5.2831    1.0000 </r>
       <r>    5.2831    1.0000 </r>
       <r>    5.2831    1.0000 </r>
       <r>    5.2831    1.0000 </r>
       <r>    5.3144    1.0000 </r>
       <r>    5.3144    1.0000 </r>
       <r>    5.3996    1.0000 </r>
       <r>    5.3996    1.0000 </r>
       <r>    5.4122    1.0000 </r>
       <r>    5.4122    1.0000 </r>
       <r>    5.5827    1.0000 </r>
       <r>    5.5827    1.0000 </r>
       <r>    6.5393    1.0308 </r>
       <r>    6.6085    1.0315 </r>
       <r>    6.8330    0.4634 </r>
       <r>    6.9604    0.0472 </r>
       <r>    6.9604    0.0472 </r>
       <r>    6.9644    0.0400 </r>
       <r>    7.1300   -0.0264 </r>
       <r>    7.1300   -0.0264 </r>
       <r>    7.2982   -0.0020 </r>
       <r>    7.4994   -0.0000 </r>
       <r>    7.4994   -0.0000 </r>
       <r>    7.6584   -0.0000 </r>
       <r>    7.6585   -0.0000 </r>
       <r>    7.6663   -0.0000 </r>
       <r>    7.6663   -0.0000 </r>
       <r>    8.2946   -0.0000 </r>
       <r>    8.2946   -0.0000 </r>
       <r>    8.4931   -0.0000 </r>
       <r>    8.4931   -0.0000 </r>
       <r>    8.9198   -0.0000 </r>
       <r>    8.9198   -0.0000 </r>
       <r>    8.9198   -0.0000 </r>
       <r>    8.9198   -0.0000 </r>
       <r>    9.0019   -0.0000 </r>
       <r>    9.0020   -0.0000 </r>
       <r>    9.0766   -0.0000 </r>
       <r>    9.1171   -0.0000 </r>
       <r>    9.1171   -0.0000 </r>
       <r>    9.1171   -0.0000 </r>
       <r>    9.1171   -0.0000 </r>
       <r>    9.2038   -0.0000 </r>
       <r>    9.2353   -0.0000 </r>
       <r>    9.2353   -0.0000 </r>
       <r>    9.3188   -0.0000 </r>
       <r>    9.6190   -0.0000 </r>
       <r>    9.6216   -0.0000 </r>
       <r>    9.6572   -0.0000 </r>
      </set>
      <set comment="kpoint 2">
       <r>   -5.6208    1.0000 </r>
       <r>   -5.6208    1.0000 </r>
       <r>   -4.5196    1.0000 </r>
       <r>   -4.5196    1.0000 </r>
       <r>   -4.4939    1.0000 </r>
       <r>   -4.4939    1.0000 </r>
       <r>   -4.4939    1.0000 </r>
       <r>   -4.4939    1.0000 </r>
       <r>   -4.4672    1.0000 </r>
       <r>   -4.4672    1.0000 </r>
       <r>   -3.5931    1.0000 </r>
       <r>   -3.5931    1.0000 </r>
       <r>   -3.5931    1.0000 </r>
       <r>   -3.5931    1.0000 </r>
       <r>   -3.5300    1.0000 </r>
       <r>   -3.5300    1.0000 </r>
       <r>   -3.5300    1.0000 </r>
       <r>   -3.5300    1.0000 </r>
       <r>   -3.2825    1.0000 </r>
       <r>   -3.2825    1.0000 </r>
       <r>   -2.5656    1.0000 </r>
       <r>   -2.5656    1.0000 </r>
       <r>   -2.5009    1.0000 </r>
       <r>   -2.5009    1.0000 </r>
       <r>   -2.5009    1.0000 </r>
       <r>   -2.5009    1.0000 </r>
       <r>   -2.4357    1.0000 </r>
       <r>   -2.4357    1.0000 </r>
       <r>   -1.4299    1.0000 </r>
       <r>   -1.4299    1.0000 </r>
       <r>   -1.4248    1.0000 </r>
       <r>   -1.4248    1.0000 </r>
       <r>   -1.3581    1.0000 </r>
       <r>   -1.3581    1.0000 </r>
       <r>   -1.3487    1.0000 </r>
       <r>   -1.3487    1.0000 </r>
       <r>   -0.1479    1.0000 </r>
       <r>   -0.1479    1.0000 </r>
       <r>   -0.1391    1.0000 </r>
       <r>   -0.1391    1.0000 </r>
       <r>   -0.1391    1.0000 </r>
       <r>   -0.1391    1.0000 </r>
       <r>   -0.1340    1.0000 </r>
       <r>   -0.1340    1.0000 </r>
       <r>   -0.1055    1.0000 </r>
       <r>   -0.1055    1.0000 </r>
       <r>   -0.1055    1.0000 </r>
       <r>   -0.1055    1.0000 </r>
       <r>   -0.0138    1.0000 </r>
       <r>   -0.0138    1.0000 </r>
       <r>   -0.0137    1.0000 </r>
       <r>   -0.0137    1.0000 </r>
       <r>    0.8901    1.0000 </r>
       <r>    0.8901    1.0000 </r>
       <r>    1.9354    1.0000 </r>
       <r>    1.9354    1.0000 </r>
       <r>    1.9464    1.0000 </r>
       <r>    1.9464    1.0000 </r>
       <r>    1.9464    1.0000 </r>
       <r>    1.9464    1.0000 </r>
       <r>    1.9554    1.0000 </r>
       <r>    1.9554    1.0000 </r>
       <r>    2.2130    1.0000 </r>
       <r>    2.2130    1.0000 </r>
       <r>    2.2407    1.0000 </r>
       <r>    2.2407    1.0000 </r>
       <r>    2.2407    1.0000 </r>
       <r>    2.2407    1.0000 </r>
       <r>    2.2825    1.0000 </r>
       <r>    2.2825    1.0000 </r>
       <r>    2.8095    1.0000 </r>
       <r>    2.8095    1.0000 </r>
       <r>    2.9002    1.0000 </r>
       <r>    2.9002    1.0000 </r>
       <r>    2.9208    1.0000 </r>
       <r>    2.9208    1.0000 </r>
       <r>    3.0152    1.0000 </r>
       <r>    3.0152    1.0000 </r>
       <r>    3.6285    1.0000 </r>
       <r>    3.6285    1.0000 </r>
       <r>    3.6670    1.0000 </r>
       <r>    3.6670    1.0000 </r>
       <r>    3.6670    1.0000 </r>
       <r>    3.6670    1.0000 </r>
       <r>    3.6920    1.0000 </r>
       <r>    3.6920    1.0000 </r>
       <r>    3.7200    1.0000 </r>
       <r>    3.7200    1.0000 </r>
       <r>    3.7207    1.0000 </r>
       <r>    3.7207    1.0000 </r>
       <r>    3.8108    1.0000 </r>
       <r>    3.8108    1.0000 </r>
       <r>    3.8935    1.0000 </r>
       <r>    3.8935    1.0000 </r>
       <r>    3.8935    1.0000 </r>
       <r>    3.8935    1.0000 </r>
       <r>    3.9790    1.0000 </r>
       <r>    3.9790    1.0000 </r>
       <r>    4.0368    1.0000 </r>
       <r>    4.0368    1.0000 </r>
       <r>    4.0368    1.0000 </r>
       <r>    4.0368    1.0000 </r>
       <r>    4.2041    1.0000 </r>
       <r>    4.2041    1.0000 </r>
       <r>    4.2041    1.0000 </r>
       <r>    4.2041    1.0000 </r>
       <r>    5.0728    1.0000 </r>
       <r>    5.0728    1.0000 </r>
       <r>    5.1312    1.0000 </r>
       <r>    5.1312    1.0000 </r>
       <r>    5.1312    1.0000 </r>
       <r>    5.1312    1.0000 </r>
       <r>    5.1650    1.0000 </r>
       <r>    5.1650    1.0000 </r>
       <r>    5.1650    1.0000 </r>
       <r>    5.1650    1.0000 </r>
       <r>    5.1936    1.0000 </r>
       <r>    5.1936    1.0000 </r>
       <r>    5.2205    1.0000 </r>
       <r>    5.2205    1.0000 </r>
       <r>    5.2205    1.0000 </r>
       <r>    5.2205    1.0000 </r>
       <r>    5.4385    1.0000 </r>
       <r>    5.4385    1.0000 </r>
       <r>    5.6992    1.0000 </r>
       <r>    5.6992    1.0000 </r>
       <r>    5.7457    1.0000 </r>
       <r>    5.7457    1.0000 </r>
       <r>    6.8922    0.2302 </r>
       <r>    6.8922    0.2302 </r>
       <r>    7.8575   -0.0000 </r>
       <r>    7.8575   -0.0000 </r>
       <r>    8.3680   -0.0000 </r>
       <r>    8.3680   -0.0000 </r>
       <r>    8.5169   -0.0000 </r>
       <r>    8.5169   -0.0000 </r>
       <r>    8.5477   -0.0000 </r>
       <r>    8.5477   -0.0000 </r>
       <r>    8.5957   -0.0000 </r>
       <r>    8.5957   -0.0000 </r>
       <r>    8.7781   -0.0000 </r>
       <r>    8.7782   -0.0000 </r>
       <r>    8.9282   -0.0000 </r>
       <r>    8.9283   -0.0000 </r>
       <r>    8.9283   -0.0000 </r>
       <r>    8.9283   -0.0000 </r>
       <r>    9.0364   -0.0000 </r>
       <r>    9.0364   -0.0000 </r>
       <r>    9.0364   -0.0000 </r>
       <r>    9.0366   -0.0000 </r>
       <r>    9.0782   -0.0000 </r>
       <r>    9.0783   -0.0000 </r>
       <r>    9.1254   -0.0000 </r>
       <r>    9.1254   -0.0000 </r>
       <r>    9.1257   -0.0000 </r>
[...]
      </set>
     </set>
    </set>
   </array>
  </eigenvalues>
  <separator name="orbital magnetization" >
   <v name="MAGDIPOLOUT">      0.00000000      0.00000000      0.00000000</v>
  </separator>
  <dos>
   <i name="efermi">      6.82428984 </i>
   <total>
    <array>
     <dimension dim="1">gridpoints</dimension>
     <dimension dim="2">spin</dimension>
     <field>energy</field>
     <field>total</field>
     <field>integrated</field>
     <set>
      <set comment="spin 1">
       <r>    -7.9218     0.0000     0.0000 </r>
       <r>    -7.8550     0.0000     0.0000 </r>
       <r>    -7.7881     0.0000     0.0000 </r>
       <r>    -7.7213     0.0000     0.0000 </r>
       <r>    -7.6544     0.0000     0.0000 </r>
       <r>    -7.5876    -0.0000    -0.0000 </r>
       <r>    -7.5208    -0.0000    -0.0000 </r>
       <r>    -7.4539    -0.0000    -0.0000 </r>
       <r>    -7.3871    -0.0000    -0.0000 </r>
       <r>    -7.3202    -0.0000    -0.0000 </r>
       <r>    -7.2534    -0.0000    -0.0000 </r>
       <r>    -7.1866    -0.0000    -0.0000 </r>
       <r>    -7.1197    -0.0000    -0.0000 </r>
       <r>    -7.0529    -0.0000    -0.0000 </r>
       <r>    -6.9860    -0.0000    -0.0000 </r>
       <r>    -6.9192    -0.0000    -0.0000 </r>
       <r>    -6.8524    -0.0000    -0.0000 </r>
       <r>    -6.7855    -0.0000    -0.0000 </r>
       <r>    -6.7187    -0.0000    -0.0000 </r>
       <r>    -6.6518    -0.0000    -0.0000 </r>
       <r>    -6.5850    -0.0000    -0.0000 </r>
       <r>    -6.5182    -0.0003    -0.0000 </r>
       <r>    -6.4513    -0.0018    -0.0001 </r>
       <r>    -6.3845    -0.0074    -0.0006 </r>
       <r>    -6.3176    -0.0225    -0.0021 </r>
       <r>    -6.2508    -0.0476    -0.0053 </r>
       <r>    -6.1840    -0.0560    -0.0091 </r>
       <r>    -6.1171     0.0183    -0.0078 </r>
       <r>    -6.0503     0.2253     0.0072 </r>
       <r>    -5.9834     0.4911     0.0400 </r>
       <r>    -5.9166     0.6709     0.0849 </r>
       <r>    -5.8498     0.8824     0.1439 </r>
       <r>    -5.7829     1.6427     0.2537 </r>
       <r>    -5.7161     3.2261     0.4693 </r>
       <r>    -5.6492     4.9148     0.7978 </r>
       <r>    -5.5824     5.6975     1.1786 </r>
       <r>    -5.5155     5.9601     1.5770 </r>
       <r>    -5.4487     7.3093     2.0656 </r>
       <r>    -5.3819     9.9809     2.7327 </r>
       <r>    -5.3150    11.8045     3.5217 </r>
       <r>    -5.2482    11.0402     4.2596 </r>
       <r>    -5.1813     8.9252     4.8562 </r>
       <r>    -5.1145     7.7434     5.3738 </r>
       <r>    -5.0477     7.5677     5.8796 </r>
       <r>    -4.9808     6.8375     6.3366 </r>
       <r>    -4.9140     5.2646     6.6885 </r>
       <r>    -4.8471     4.1211     6.9640 </r>
       <r>    -4.7803     4.1515     7.2415 </r>
       <r>    -4.7135     5.2884     7.5949 </r>
       <r>    -4.6466     8.2637     8.1473 </r>
       <r>    -4.5798    13.9751     9.0814 </r>
       <r>    -4.5129    20.6965    10.4648 </r>
       <r>    -4.4461    24.7948    12.1221 </r>
       <r>    -4.3793    25.4066    13.8203 </r>
       <r>    -4.3124    25.2434    15.5075 </r>
       <r>    -4.2456    25.3799    17.2039 </r>
       <r>    -4.1787    22.9715    18.7394 </r>
       <r>    -4.1119    16.0221    19.8103 </r>
       <r>    -4.0451     7.0990    20.2848 </r>
       <r>    -3.9782     0.5625    20.3224 </r>
       <r>    -3.9114    -1.4026    20.2286 </r>
       <r>    -3.8445     1.0702    20.3002 </r>
       <r>    -3.7777     7.1072    20.7752 </r>
       <r>    -3.7109    15.3609    21.8020 </r>
       <r>    -3.6440    23.5187    23.3740 </r>
       <r>    -3.5772    28.6317    25.2877 </r>
       <r>    -3.5103    28.5930    27.1989 </r>
       <r>    -3.4435    23.8291    28.7917 </r>
       <r>    -3.3767    17.5022    29.9615 </r>
       <r>    -3.3098    13.6909    30.8766 </r>
       <r>    -3.2430    15.0472    31.8824 </r>
       <r>    -3.1761    21.3504    33.3095 </r>
       <r>    -3.1093    29.5502    35.2846 </r>
       <r>    -3.0424    35.6961    37.6706 </r>
       <r>    -2.9756    37.6492    40.1871 </r>
       <r>    -2.9088    36.0563    42.5971 </r>
       <r>    -2.8419    32.8123    44.7903 </r>
       <r>    -2.7751    29.2366    46.7445 </r>
       <r>    -2.7082    26.1742    48.4940 </r>
       <r>    -2.6414    24.7142    50.1459 </r>
       <r>    -2.5746    24.9025    51.8104 </r>
       <r>    -2.5077    24.2447    53.4309 </r>
       <r>    -2.4409    19.8603    54.7584 </r>
       <r>    -2.3740    12.1759    55.5722 </r>
       <r>    -2.3072     4.6484    55.8829 </r>
       <r>    -2.2404     0.0367    55.8854 </r>
       <r>    -2.1735    -1.5400    55.7824 </r>
       <r>    -2.1067    -1.1673    55.7044 </r>
       <r>    -2.0398     0.7265    55.7530 </r>
       <r>    -1.9730     4.2432    56.0366 </r>
       <r>    -1.9062     8.5037    56.6050 </r>
       <r>    -1.8393    11.1497    57.3502 </r>
       <r>    -1.7725    10.1833    58.0309 </r>
       <r>    -1.7056     6.3191    58.4533 </r>
       <r>    -1.6388     2.9369    58.6496 </r>
       <r>    -1.5720     3.6087    58.8908 </r>
       <r>    -1.5051     9.6822    59.5379 </r>
       <r>    -1.4383    19.4167    60.8357 </r>
       <r>    -1.3714    28.6546    62.7510 </r>
       <r>    -1.3046    32.8656    64.9478 </r>
       <r>    -1.2378    29.8005    66.9397 </r>
       <r>    -1.1709    21.0036    68.3436 </r>
       <r>    -1.1041    10.9683    69.0767 </r>
       <r>    -1.0372     4.4613    69.3749 </r>
       <r>    -0.9704     3.7379    69.6247 </r>
       <r>    -0.9036     7.3556    70.1164 </r>
       <r>    -0.8367    11.4218    70.8798 </r>
       <r>    -0.7699    12.7459    71.7318 </r>
       <r>    -0.7030    11.7364    72.5162 </r>
       <r>    -0.6362    12.0453    73.3214 </r>
       <r>    -0.5693    16.1410    74.4002 </r>
       <r>    -0.5025    21.1826    75.8161 </r>
       <r>    -0.4357    21.4070    77.2469 </r>
       <r>    -0.3688    15.7971    78.3028 </r>
       <r>    -0.3020    11.4181    79.0660 </r>
       <r>    -0.2351    17.0625    80.2065 </r>
       <r>    -0.1683    33.8216    82.4671 </r>
       <r>    -0.1015    52.7106    85.9903 </r>
       <r>    -0.0346    61.6169    90.1089 </r>
       <r>     0.0322    54.7900    93.7711 </r>
       <r>     0.0991    36.4851    96.2097 </r>
       <r>     0.1659    16.5028    97.3128 </r>
       <r>     0.2327     2.7801    97.4986 </r>
       <r>     0.2996    -2.1284    97.3564 </r>
       <r>     0.3664     0.6533    97.4000 </r>
       <r>     0.4333     8.6446    97.9778 </r>
       <r>     0.5001    17.9352    99.1766 </r>
       <r>     0.5669    23.4875   100.7466 </r>
       <r>     0.6338    22.2525   102.2339 </r>
       <r>     0.7006    15.8436   103.2929 </r>
       <r>     0.7675     9.1540   103.9048 </r>
       <r>     0.8343     6.7474   104.3558 </r>
       <r>     0.9011    10.4519   105.0544 </r>
       <r>     0.9680    18.6336   106.2999 </r>
       <r>     1.0348    26.8296   108.0932 </r>
       <r>     1.1017    30.2137   110.1127 </r>
       <r>     1.1685    26.7616   111.9014 </r>
       <r>     1.2353    18.4045   113.1316 </r>
       <r>     1.3022     9.2393   113.7492 </r>
       <r>     1.3690     2.6111   113.9237 </r>
       <r>     1.4359    -0.5858   113.8845 </r>
       <r>     1.5027    -1.5040   113.7840 </r>
       <r>     1.5696    -1.7071   113.6699 </r>
       <r>     1.6364    -1.6852   113.5573 </r>
       <r>     1.7032    -0.2328   113.5417 </r>
       <r>     1.7701     4.8245   113.8642 </r>
       <r>     1.8369    14.1981   114.8132 </r>
       <r>     1.9038    24.7189   116.4654 </r>
       <r>     1.9706    30.6411   118.5135 </r>
       <r>     2.0374    29.0765   120.4570 </r>
       <r>     2.1043    23.7085   122.0416 </r>
       <r>     2.1711    21.4375   123.4745 </r>
       <r>     2.2380    25.2145   125.1599 </r>
       <r>     2.3048    31.4630   127.2629 </r>
       <r>     2.3716    34.5282   129.5708 </r>
       <r>     2.4385    31.9806   131.7084 </r>
       <r>     2.5053    25.4891   133.4121 </r>
       <r>     2.5722    18.9989   134.6820 </r>
       <r>     2.6390    17.3789   135.8436 </r>
       <r>     2.7058    24.8046   137.5016 </r>
       <r>     2.7727    41.5467   140.2786 </r>
       <r>     2.8395    61.6099   144.3966 </r>
       <r>     2.9064    75.0302   149.4117 </r>
       <r>     2.9732    74.2381   154.3738 </r>
       <r>     3.0400    59.2251   158.3324 </r>
       <r>     3.1069    37.1758   160.8173 </r>
       <r>     3.1737    17.1275   161.9621 </r>
       <r>     3.2406     4.2750   162.2478 </r>
       <r>     3.3074    -1.3735   162.1560 </r>
       <r>     3.3742    -1.5924   162.0496 </r>
       <r>     3.4411     3.8469   162.3067 </r>
       <r>     3.5079    16.6943   163.4226 </r>
       <r>     3.5748    35.7318   165.8109 </r>
       <r>     3.6416    54.3219   169.4418 </r>
       <r>     3.7084    64.9314   173.7819 </r>
       <r>     3.7753    66.0284   178.1952 </r>
       <r>     3.8421    62.1262   182.3478 </r>
       <r>     3.9090    57.3068   186.1782 </r>
       <r>     3.9758    51.8937   189.6468 </r>
       <r>     4.0427    45.8439   192.7110 </r>
       <r>     4.1095    41.6184   195.4928 </r>
       <r>     4.1763    41.3339   198.2556 </r>
       <r>     4.2432    42.9622   201.1272 </r>
       <r>     4.3100    41.8155   203.9222 </r>
       <r>     4.3769    35.7021   206.3086 </r>
       <r>     4.4437    27.3762   208.1384 </r>
       <r>     4.5105    21.7632   209.5931 </r>
       <r>     4.5774    21.5407   211.0329 </r>
       <r>     4.6442    25.5967   212.7438 </r>
       <r>     4.7111    30.8883   214.8083 </r>
       <r>     4.7779    34.8577   217.1383 </r>
       <r>     4.8447    36.4157   219.5723 </r>
       <r>     4.9116    36.2129   221.9928 </r>
       <r>     4.9784    36.5791   224.4378 </r>
       <r>     5.0453    39.6857   227.0904 </r>
       <r>     5.1121    44.7997   230.0848 </r>
       <r>     5.1789    48.4274   233.3217 </r>
       <r>     5.2458    47.6639   236.5076 </r>
       <r>     5.3126    42.3716   239.3397 </r>
       <r>     5.3795    34.1445   241.6220 </r>
       <r>     5.4463    24.8419   243.2824 </r>
       <r>     5.5131    16.7039   244.3989 </r>
       <r>     5.5800    12.3062   245.2215 </r>
       <r>     5.6468    12.7864   246.0761 </r>
       <r>     5.7137    16.2441   247.1619 </r>
       <r>     5.7805    18.9463   248.4283 </r>
       <r>     5.8473    18.4404   249.6608 </r>
       <r>     5.9142    15.0889   250.6694 </r>
       <r>     5.9810    10.7506   251.3880 </r>
       <r>     6.0479     6.9429   251.8520 </r>
       <r>     6.1147     4.5662   252.1572 </r>
       <r>     6.1815     4.2640   252.4422 </r>
       <r>     6.2484     5.9258   252.8383 </r>
       <r>     6.3152     8.2013   253.3865 </r>
       <r>     6.3821     9.4171   254.0159 </r>
       <r>     6.4489     8.9334   254.6131 </r>
       <r>     6.5158     7.2208   255.0957 </r>
       <r>     6.5826     5.0133   255.4308 </r>
       <r>     6.6494     2.9414   255.6274 </r>
       <r>     6.7163     1.7040   255.7413 </r>
       <r>     6.7831     1.9197   255.8696 </r>
       <r>     6.8500     3.6008   256.1103 </r>
       <r>     6.9168     5.9912   256.5107 </r>
       <r>     6.9836     8.0073   257.0460 </r>
       <r>     7.0505     8.7624   257.6316 </r>
       <r>     7.1173     7.8604   258.1570 </r>
       <r>     7.1842     5.6345   258.5336 </r>
       <r>     7.2510     3.2174   258.7487 </r>
       <r>     7.3178     2.0669   258.8869 </r>
       <r>     7.3847     3.0785   259.0926 </r>
       <r>     7.4515     5.8857   259.4860 </r>
       <r>     7.5184     9.0010   260.0877 </r>
       <r>     7.5852    10.9979   260.8228 </r>
       <r>     7.6520    11.8216   261.6129 </r>
       <r>     7.7189    12.9066   262.4756 </r>
       <r>     7.7857    15.7450   263.5280 </r>
       <r>     7.8526    19.9353   264.8605 </r>
       <r>     7.9194    22.8555   266.3882 </r>
       <r>     7.9862    22.0295   267.8606 </r>
       <r>     8.0531    17.8869   269.0562 </r>
       <r>     8.1199    13.8251   269.9803 </r>
       <r>     8.1868    13.4703   270.8806 </r>
       <r>     8.2536    17.5961   272.0568 </r>
       <r>     8.3204    23.6668   273.6387 </r>
       <r>     8.3873    28.6928   275.5565 </r>
       <r>     8.4541    31.6700   277.6734 </r>
       <r>     8.5210    32.4878   279.8449 </r>
       <r>     8.5878    30.6383   281.8927 </r>
       <r>     8.6547    27.0781   283.7027 </r>
       <r>     8.7215    25.4426   285.4033 </r>
       <r>     8.7883    29.1259   287.3500 </r>
       <r>     8.8552    38.0576   289.8938 </r>
       <r>     8.9220    49.2230   293.1839 </r>
       <r>     8.9889    59.1046   297.1345 </r>
       <r>     9.0557    65.0799   301.4845 </r>
       <r>     9.1225    65.7651   305.8803 </r>
       <r>     9.1894    60.9497   309.9542 </r>
       <r>     9.2562    51.2265   313.3782 </r>
       <r>     9.3231    38.2521   315.9350 </r>
       <r>     9.3899    25.6337   317.6483 </r>
       <r>     9.4567    17.7761   318.8365 </r>
       <r>     9.5236    16.1234   319.9142 </r>
       <r>     9.5904    17.3765   321.0757 </r>
       <r>     9.6573    16.7448   322.1949 </r>
       <r>     9.7241    12.4800   323.0291 </r>
       <r>     9.7909     6.5829   323.4691 </r>
       <r>     9.8578     1.9426   323.5989 </r>
       <r>     9.9246    -0.1527   323.5887 </r>
       <r>     9.9915    -0.1399   323.5794 </r>
       <r>    10.0583     0.8559   323.6366 </r>
       <r>    10.1251     1.7589   323.7541 </r>
       <r>    10.1920     1.9203   323.8825 </r>
       <r>    10.2588     1.3579   323.9733 </r>
       <r>    10.3257     0.5852   324.0124 </r>
       <r>    10.3925     0.0687   324.0170 </r>
       <r>    10.4593    -0.1035   324.0101 </r>
       <r>    10.5262    -0.0903   324.0040 </r>
       <r>    10.5930    -0.0423   324.0012 </r>
       <r>    10.6599    -0.0137   324.0003 </r>
       <r>    10.7267    -0.0033   324.0000 </r>
       <r>    10.7935    -0.0006   324.0000 </r>
       <r>    10.8604    -0.0001   324.0000 </r>
       <r>    10.9272    -0.0000   324.0000 </r>
       <r>    10.9941    -0.0000   324.0000 </r>
       <r>    11.0609    -0.0000   324.0000 </r>
       <r>    11.1278    -0.0000   324.0000 </r>
       <r>    11.1946    -0.0000   324.0000 </r>
       <r>    11.2614    -0.0000   324.0000 </r>
       <r>    11.3283    -0.0000   324.0000 </r>
       <r>    11.3951    -0.0000   324.0000 </r>
       <r>    11.4620     0.0000   324.0000 </r>
       <r>    11.5288     0.0000   324.0000 </r>
       <r>    11.5956     0.0000   324.0000 </r>
       <r>    11.6625     0.0000   324.0000 </r>
       <r>    11.7293     0.0000   324.0000 </r>
       <r>    11.7962     0.0000   324.0000 </r>
       <r>    11.8630     0.0000   324.0000 </r>
       <r>    11.9298     0.0000   324.0000 </r>
       <r>    11.9967     0.0000   324.0000 </r>
       <r>    12.0635     0.0000   324.0000 </r>
       <r>    12.1304     0.0000   324.0000 </r>
      </set>
     </set>
    </array>
   </total>
  </dos>
 </calculation>
 <structure name="finalpos" >
  <crystal>
   <varray name="basis" >
    <v>      10.42609754      -0.10638902       0.00000000 </v>
    <v>      -0.10638902      10.63887557       0.00000000 </v>
    <v>       0.00000000       0.00000000      10.63887557 </v>
   </varray>
   <i name="volume">   1179.96445374 </i>
   <varray name="rec_basis" >
    <v>       0.09592295       0.00095923       0.00000000 </v>
    <v>       0.00095923       0.09400449       0.00000000 </v>
    <v>       0.00000000       0.00000000       0.09399490 </v>
   </varray>
  </crystal>
  <varray name="positions" >
   <v>       0.00000000       0.00000000       0.99912078 </v>
   <v>       0.00000000       0.00000000       0.49912078 </v>
   <v>       0.00000000       0.50000000       0.99912078 </v>
   <v>       0.00000000       0.50000000       0.49912078 </v>
   <v>       0.50000000       0.00000000       0.99912078 </v>
   <v>       0.50000000       0.00000000       0.49912078 </v>
   <v>       0.50000000       0.50000000       0.99912078 </v>
   <v>       0.50000000       0.50000000       0.49912078 </v>
   <v>       0.37500000       0.37500000       0.12587922 </v>
   <v>       0.37500000       0.37500000       0.62587922 </v>
   <v>       0.37500000       0.87500000       0.12587922 </v>
   <v>       0.37500000       0.87500000       0.62587922 </v>
   <v>       0.87500000       0.37500000       0.12587922 </v>
   <v>       0.87500000       0.37500000       0.62587922 </v>
   <v>       0.87500000       0.87500000       0.12587922 </v>
   <v>       0.87500000       0.87500000       0.62587922 </v>
   <v>       0.00000000       0.25000000       0.24912078 </v>
   <v>       0.00000000       0.25000000       0.74912078 </v>
   <v>       0.00000000       0.75000000       0.24912078 </v>
   <v>       0.00000000       0.75000000       0.74912078 </v>
   <v>       0.50000000       0.25000000       0.24912078 </v>
   <v>       0.50000000       0.25000000       0.74912078 </v>
   <v>       0.50000000       0.75000000       0.24912078 </v>
   <v>       0.50000000       0.75000000       0.74912078 </v>
   <v>       0.37500000       0.12500000       0.37587922 </v>
   <v>       0.37500000       0.12500000       0.87587922 </v>
   <v>       0.37500000       0.62500000       0.37587922 </v>
   <v>       0.37500000       0.62500000       0.87587922 </v>
   <v>       0.87500000       0.12500000       0.37587922 </v>
   <v>       0.87500000       0.12500000       0.87587922 </v>
   <v>       0.87500000       0.62500000       0.37587922 </v>
   <v>       0.87500000       0.62500000       0.87587922 </v>
   <v>       0.25000000       0.00000000       0.24912078 </v>
   <v>       0.25000000       0.00000000       0.74912078 </v>
   <v>       0.25000000       0.50000000       0.24912078 </v>
   <v>       0.25000000       0.50000000       0.74912078 </v>
   <v>       0.75000000       0.00000000       0.24912078 </v>
   <v>       0.75000000       0.00000000       0.74912078 </v>
   <v>       0.75000000       0.50000000       0.24912078 </v>
   <v>       0.75000000       0.50000000       0.74912078 </v>
   <v>       0.12500000       0.37500000       0.37587922 </v>
   <v>       0.12500000       0.37500000       0.87587922 </v>
   <v>       0.12500000       0.87500000       0.37587922 </v>
   <v>       0.12500000       0.87500000       0.87587922 </v>
   <v>       0.62500000       0.37500000       0.37587922 </v>
   <v>       0.62500000       0.37500000       0.87587922 </v>
   <v>       0.62500000       0.87500000       0.37587922 </v>
   <v>       0.62500000       0.87500000       0.87587922 </v>
   <v>       0.25000000       0.25000000       0.99912078 </v>
   <v>       0.25000000       0.25000000       0.49912078 </v>
   <v>       0.25000000       0.75000000       0.99912078 </v>
   <v>       0.25000000       0.75000000       0.49912078 </v>
   <v>       0.75000000       0.25000000       0.99912078 </v>
   <v>       0.75000000       0.25000000       0.49912078 </v>
   <v>       0.75000000       0.75000000       0.99912078 </v>
   <v>       0.75000000       0.75000000       0.49912078 </v>
   <v>       0.12500000       0.12500000       0.12587922 </v>
   <v>       0.12500000       0.12500000       0.62587922 </v>
   <v>       0.12500000       0.62500000       0.12587922 </v>
   <v>       0.12500000       0.62500000       0.62587922 </v>
   <v>       0.62500000       0.12500000       0.12587922 </v>
   <v>       0.62500000       0.12500000       0.62587922 </v>
   <v>       0.62500000       0.62500000       0.12587922 </v>
   <v>       0.62500000       0.62500000       0.62587922 </v>
  </varray>
 </structure>
</modeling>
