  64  64   0   0
  0.2013400E+02  0.1088187E-08  0.1088187E-08  0.1088187E-08  0.5000000E-15
  1.000000000000000E-004
  CAR 
 Si64                                    
     11.54822572     -8.10962855  301      6.37488456      1.00000000
     -8.110  0.0000E+00  0.0000E+00
     -8.044  0.0000E+00  0.0000E+00
     -7.979  0.0000E+00  0.0000E+00
     -7.913  0.0000E+00  0.0000E+00
     -7.848  0.0000E+00  0.0000E+00
     -7.782  0.0000E+00  0.0000E+00
     -7.716 -0.1335E-28 -0.8750E-30
     -7.651 -0.2211E-26 -0.1458E-27
     -7.585 -0.2962E-24 -0.1956E-25
     -7.520 -0.3194E-22 -0.2113E-23
     -7.454 -0.2772E-20 -0.1837E-21
     -7.389 -0.1935E-18 -0.1286E-19
     -7.323 -0.1086E-16 -0.7244E-18
     -7.258 -0.4758E-15 -0.3190E-16
     -7.192 -0.1715E-13 -0.1156E-14
     -7.127 -0.4967E-12 -0.3370E-13
     -7.061 -0.1152E-10 -0.7888E-12
     -6.996 -0.2139E-09 -0.1481E-10
     -6.930 -0.3171E-08 -0.2226E-09
     -6.865 -0.3745E-07 -0.2676E-08
     -6.799 -0.3511E-06 -0.2569E-07
     -6.734 -0.2602E-05 -0.1962E-06
     -6.668 -0.1512E-04 -0.1187E-05
     -6.603 -0.6817E-04 -0.5654E-05
     -6.537 -0.2337E-03 -0.2097E-04
     -6.471 -0.5857E-03 -0.5935E-04
     -6.406 -0.9716E-03 -0.1230E-03
     -6.340 -0.6666E-03 -0.1667E-03
     -6.275  0.1402E-02 -0.7480E-04
     -6.209  0.5283E-02  0.2714E-03
     -6.144  0.9220E-02  0.8755E-03
     -6.078  0.1273E-01  0.1710E-02
     -6.013  0.2109E-01  0.3091E-02
     -5.947  0.4139E-01  0.5804E-02
     -5.882  0.7006E-01  0.1039E-01
     -5.816  0.9200E-01  0.1642E-01
     -5.751  0.1023E+00  0.2313E-01
     -5.685  0.1191E+00  0.3093E-01
     -5.620  0.1564E+00  0.4118E-01
     -5.554  0.1937E+00  0.5387E-01
     -5.489  0.1976E+00  0.6682E-01
     -5.423  0.1700E+00  0.7796E-01
     -5.358  0.1438E+00  0.8738E-01
     -5.292  0.1330E+00  0.9609E-01
     -5.226  0.1205E+00  0.1040E+00
     -5.161  0.9601E-01  0.1103E+00
     -5.095  0.7419E-01  0.1151E+00
     -5.030  0.7061E-01  0.1198E+00
     -4.964  0.8990E-01  0.1257E+00
     -4.899  0.1434E+00  0.1351E+00
     -4.833  0.2417E+00  0.1509E+00
     -4.768  0.3561E+00  0.1742E+00
     -4.702  0.4311E+00  0.2025E+00
     -4.637  0.4523E+00  0.2321E+00
     -4.571  0.4551E+00  0.2619E+00
     -4.506  0.4468E+00  0.2912E+00
     -4.440  0.3833E+00  0.3163E+00
     -4.375  0.2472E+00  0.3325E+00
     -4.309  0.9326E-01  0.3386E+00
     -4.244 -0.6635E-02  0.3382E+00
     -4.178 -0.2067E-01  0.3368E+00
     -4.113  0.4757E-01  0.3400E+00
     -4.047  0.1810E+00  0.3518E+00
     -3.981  0.3455E+00  0.3745E+00
     -3.916  0.4819E+00  0.4060E+00
     -3.850  0.5283E+00  0.4407E+00
     -3.785  0.4660E+00  0.4712E+00
     -3.719  0.3422E+00  0.4936E+00
     -3.654  0.2380E+00  0.5092E+00
     -3.588  0.2185E+00  0.5235E+00
     -3.523  0.3047E+00  0.5435E+00
     -3.457  0.4626E+00  0.5738E+00
     -3.392  0.6158E+00  0.6142E+00
     -3.326  0.6970E+00  0.6598E+00
     -3.261  0.6936E+00  0.7053E+00
     -3.195  0.6338E+00  0.7468E+00
     -3.130  0.5458E+00  0.7826E+00
     -3.064  0.4567E+00  0.8125E+00
     -2.999  0.4068E+00  0.8392E+00
     -2.933  0.4099E+00  0.8660E+00
     -2.868  0.4108E+00  0.8929E+00
     -2.802  0.3390E+00  0.9151E+00
     -2.736  0.1993E+00  0.9282E+00
     -2.671  0.6369E-01  0.9324E+00
     -2.605 -0.1372E-01  0.9315E+00
     -2.540 -0.3390E-01  0.9293E+00
     -2.474 -0.1700E-01  0.9281E+00
     -2.409  0.3151E-01  0.9302E+00
     -2.343  0.1077E+00  0.9373E+00
     -2.278  0.1803E+00  0.9491E+00
     -2.212  0.2002E+00  0.9622E+00
     -2.147  0.1480E+00  0.9719E+00
     -2.081  0.6144E-01  0.9759E+00
     -2.016  0.1106E-01  0.9766E+00
     -1.950  0.5686E-01  0.9804E+00
     -1.885  0.2153E+00  0.9945E+00
     -1.819  0.4350E+00  0.1023E+01
     -1.754  0.6045E+00  0.1063E+01
     -1.688  0.6207E+00  0.1103E+01
     -1.623  0.4738E+00  0.1134E+01
     -1.557  0.2551E+00  0.1151E+01
     -1.491  0.8062E-01  0.1156E+01
     -1.426  0.1492E-01  0.1157E+01
     -1.360  0.5232E-01  0.1161E+01
     -1.295  0.1374E+00  0.1170E+01
     -1.229  0.1998E+00  0.1183E+01
     -1.164  0.1996E+00  0.1196E+01
     -1.098  0.1579E+00  0.1206E+01
     -1.033  0.1402E+00  0.1215E+01
     -0.967  0.1966E+00  0.1228E+01
     -0.902  0.3033E+00  0.1248E+01
     -0.836  0.3745E+00  0.1273E+01
     -0.771  0.3578E+00  0.1296E+01
     -0.705  0.3164E+00  0.1317E+01
     -0.640  0.3760E+00  0.1342E+01
     -0.574  0.5866E+00  0.1380E+01
     -0.509  0.8554E+00  0.1436E+01
     -0.443  0.1009E+01  0.1502E+01
     -0.378  0.9243E+00  0.1563E+01
     -0.312  0.6265E+00  0.1604E+01
     -0.246  0.2768E+00  0.1622E+01
     -0.181  0.4648E-01  0.1625E+01
     -0.115  0.9755E-02  0.1626E+01
     -0.050  0.1313E+00  0.1634E+01
      0.016  0.3047E+00  0.1654E+01
      0.081  0.4086E+00  0.1681E+01
      0.147  0.3836E+00  0.1706E+01
      0.212  0.2706E+00  0.1724E+01
      0.278  0.1561E+00  0.1734E+01
      0.343  0.9561E-01  0.1740E+01
      0.409  0.1028E+00  0.1747E+01
      0.474  0.1751E+00  0.1758E+01
      0.540  0.2973E+00  0.1778E+01
      0.605  0.4271E+00  0.1806E+01
      0.671  0.4976E+00  0.1839E+01
      0.736  0.4553E+00  0.1868E+01
      0.802  0.3112E+00  0.1889E+01
      0.867  0.1420E+00  0.1898E+01
      0.933  0.2485E-01  0.1900E+01
      0.999 -0.2057E-01  0.1898E+01
      1.064 -0.2253E-01  0.1897E+01
      1.130 -0.1438E-01  0.1896E+01
      1.195 -0.1303E-01  0.1895E+01
      1.261 -0.2190E-01  0.1894E+01
      1.326 -0.3334E-01  0.1891E+01
      1.392 -0.2074E-01  0.1890E+01
      1.457  0.6316E-01  0.1894E+01
      1.523  0.2572E+00  0.1911E+01
      1.588  0.5372E+00  0.1946E+01
      1.654  0.7900E+00  0.1998E+01
      1.719  0.8729E+00  0.2055E+01
      1.785  0.7329E+00  0.2103E+01
      1.850  0.4728E+00  0.2134E+01
      1.916  0.2773E+00  0.2152E+01
      1.981  0.2548E+00  0.2169E+01
      2.047  0.3509E+00  0.2192E+01
      2.112  0.4189E+00  0.2220E+01
      2.178  0.3772E+00  0.2244E+01
      2.244  0.2984E+00  0.2264E+01
      2.309  0.3521E+00  0.2287E+01
      2.375  0.6490E+00  0.2329E+01
      2.440  0.1108E+01  0.2402E+01
      2.506  0.1469E+01  0.2498E+01
      2.571  0.1476E+01  0.2595E+01
      2.637  0.1103E+01  0.2667E+01
      2.702  0.5716E+00  0.2705E+01
      2.768  0.1476E+00  0.2714E+01
      2.833 -0.6361E-01  0.2710E+01
      2.899 -0.1142E+00  0.2703E+01
      2.964 -0.7348E-01  0.2698E+01
      3.030  0.5983E-01  0.2702E+01
      3.095  0.3188E+00  0.2723E+01
      3.161  0.6781E+00  0.2767E+01
      3.226  0.1031E+01  0.2835E+01
      3.292  0.1261E+01  0.2917E+01
      3.357  0.1323E+01  0.3004E+01
      3.423  0.1241E+01  0.3085E+01
      3.489  0.1066E+01  0.3155E+01
      3.554  0.8491E+00  0.3211E+01
      3.620  0.6646E+00  0.3254E+01
      3.685  0.6032E+00  0.3294E+01
      3.751  0.6812E+00  0.3339E+01
      3.816  0.7682E+00  0.3389E+01
      3.882  0.7036E+00  0.3435E+01
      3.947  0.4985E+00  0.3468E+01
      4.013  0.3335E+00  0.3490E+01
      4.078  0.3423E+00  0.3512E+01
      4.144  0.4708E+00  0.3543E+01
      4.209  0.5776E+00  0.3581E+01
      4.275  0.6078E+00  0.3621E+01
      4.340  0.6137E+00  0.3661E+01
      4.406  0.6389E+00  0.3703E+01
      4.471  0.6684E+00  0.3746E+01
      4.537  0.6943E+00  0.3792E+01
      4.602  0.7510E+00  0.3841E+01
      4.668  0.8517E+00  0.3897E+01
      4.734  0.9298E+00  0.3958E+01
      4.799  0.8797E+00  0.4015E+01
      4.865  0.6624E+00  0.4059E+01
      4.930  0.3588E+00  0.4082E+01
      4.996  0.1112E+00  0.4090E+01
      5.061  0.2159E-01  0.4091E+01
      5.127  0.1023E+00  0.4098E+01
      5.192  0.2806E+00  0.4116E+01
      5.258  0.4309E+00  0.4144E+01
      5.323  0.4475E+00  0.4174E+01
      5.389  0.3232E+00  0.4195E+01
      5.454  0.1482E+00  0.4205E+01
      5.520  0.2377E-01  0.4206E+01
      5.585 -0.6283E-02  0.4206E+01
      5.651  0.4494E-01  0.4209E+01
      5.716  0.1319E+00  0.4217E+01
      5.782  0.1952E+00  0.4230E+01
      5.847  0.1942E+00  0.4243E+01
      5.913  0.1401E+00  0.4252E+01
      5.979  0.8118E-01  0.4257E+01
      6.044  0.5002E-01  0.4261E+01
      6.110  0.3951E-01  0.4263E+01
      6.175  0.2789E-01  0.4265E+01
      6.241  0.9582E-02  0.4266E+01
      6.306 -0.1410E-02  0.4266E+01
      6.372  0.1445E-01  0.4267E+01
      6.437  0.6608E-01  0.4271E+01
      6.503  0.1376E+00  0.4280E+01
      6.568  0.1891E+00  0.4292E+01
      6.634  0.1850E+00  0.4304E+01
      6.699  0.1264E+00  0.4313E+01
      6.765  0.4970E-01  0.4316E+01
      6.830 -0.2398E-02  0.4316E+01
      6.896 -0.1128E-02  0.4316E+01
      6.961  0.6418E-01  0.4320E+01
      7.027  0.1729E+00  0.4331E+01
      7.092  0.2635E+00  0.4349E+01
      7.158  0.2741E+00  0.4366E+01
      7.223  0.2182E+00  0.4381E+01
      7.289  0.1933E+00  0.4393E+01
      7.355  0.2786E+00  0.4412E+01
      7.420  0.4299E+00  0.4440E+01
      7.486  0.5101E+00  0.4473E+01
      7.551  0.4328E+00  0.4502E+01
      7.617  0.2510E+00  0.4518E+01
      7.682  0.1069E+00  0.4525E+01
      7.748  0.1299E+00  0.4534E+01
      7.813  0.3558E+00  0.4557E+01
      7.879  0.6759E+00  0.4601E+01
      7.944  0.8817E+00  0.4659E+01
      8.010  0.8400E+00  0.4714E+01
      8.075  0.6264E+00  0.4755E+01
      8.141  0.4412E+00  0.4784E+01
      8.206  0.4217E+00  0.4812E+01
      8.272  0.5765E+00  0.4849E+01
      8.337  0.8426E+00  0.4905E+01
      8.403  0.1117E+01  0.4978E+01
      8.468  0.1266E+01  0.5061E+01
      8.534  0.1193E+01  0.5139E+01
      8.600  0.9247E+00  0.5200E+01
      8.665  0.5917E+00  0.5238E+01
      8.731  0.3295E+00  0.5260E+01
      8.796  0.1965E+00  0.5273E+01
      8.862  0.1639E+00  0.5284E+01
      8.927  0.1785E+00  0.5295E+01
      8.993  0.2230E+00  0.5310E+01
      9.058  0.2947E+00  0.5329E+01
      9.124  0.3494E+00  0.5352E+01
      9.189  0.3245E+00  0.5373E+01
      9.255  0.2167E+00  0.5388E+01
      9.320  0.9190E-01  0.5394E+01
      9.386  0.1556E-01  0.5395E+01
      9.451 -0.7307E-03  0.5395E+01
      9.517  0.1374E-01  0.5395E+01
      9.582  0.2712E-01  0.5397E+01
      9.648  0.2625E-01  0.5399E+01
      9.713  0.1549E-01  0.5400E+01
      9.779  0.4716E-02  0.5400E+01
      9.845 -0.8021E-03  0.5400E+01
      9.910 -0.1832E-02  0.5400E+01
      9.976 -0.1153E-02  0.5400E+01
     10.041 -0.4651E-03  0.5400E+01
     10.107 -0.1361E-03  0.5400E+01
     10.172 -0.3022E-04  0.5400E+01
     10.238 -0.5202E-05  0.5400E+01
     10.303 -0.7022E-06  0.5400E+01
     10.369 -0.7489E-07  0.5400E+01
     10.434 -0.6341E-08  0.5400E+01
     10.500 -0.4278E-09  0.5400E+01
     10.565 -0.2305E-10  0.5400E+01
     10.631 -0.9934E-12  0.5400E+01
     10.696 -0.3431E-13  0.5400E+01
     10.762 -0.9319E-15  0.5400E+01
     10.827 -0.2824E-16  0.5400E+01
     10.893  0.0000E+00  0.5400E+01
     10.958  0.0000E+00  0.5400E+01
     11.024  0.0000E+00  0.5400E+01
     11.090  0.0000E+00  0.5400E+01
     11.155  0.0000E+00  0.5400E+01
     11.221  0.0000E+00  0.5400E+01
     11.286  0.0000E+00  0.5400E+01
     11.352  0.0000E+00  0.5400E+01
     11.417  0.0000E+00  0.5400E+01
     11.483  0.0000E+00  0.5400E+01
     11.548  0.0000E+00  0.5400E+01
