       N       E                     dE             d eps       ncg     rms          rms(c)
DAV:   1     0.555804707810E+03    0.55580E+03   -0.83694E+04  1296   0.106E+03
DAV:   2    -0.309906729313E+03   -0.86571E+03   -0.82147E+03  1536   0.172E+02
DAV:   3    -0.372982226243E+03   -0.63075E+02   -0.61823E+02  1568   0.409E+01
DAV:   4    -0.374664277786E+03   -0.16821E+01   -0.16700E+01  1552   0.800E+00
DAV:   5    -0.374715560019E+03   -0.51282E-01   -0.51178E-01  1510   0.132E+00    0.279E+01
RMM:   6    -0.369822199438E+03    0.48934E+01   -0.24101E+00  1296   0.242E+00    0.168E+01
RMM:   7    -0.367570632286E+03    0.22516E+01   -0.62841E+00  1322   0.391E+00    0.931E-01
RMM:   8    -0.367608697552E+03   -0.38065E-01   -0.55290E-01  1310   0.148E+00    0.480E-01
RMM:   9    -0.367626680108E+03   -0.17983E-01   -0.16517E-01  1322   0.726E-01    0.564E-01
RMM:  10    -0.367629569675E+03   -0.28896E-02   -0.28950E-02  1354   0.344E-01    0.682E-01
RMM:  11    -0.367628071930E+03    0.14977E-02   -0.95577E-03  1296   0.203E-01    0.819E-01
RMM:  12    -0.367627955942E+03    0.11599E-03   -0.17209E-03  1304   0.978E-02    0.981E-01
RMM:  13    -0.367628101843E+03   -0.14590E-03   -0.33053E-04  1368   0.421E-02    0.956E-01
RMM:  14    -0.367626376640E+03    0.17252E-02   -0.67685E-04  1296   0.575E-02    0.151E+00
RMM:  15    -0.367626156066E+03    0.22057E-03   -0.16016E-04  1299   0.257E-02    0.166E+00
RMM:  16    -0.367626243714E+03   -0.87648E-04   -0.20131E-05  1338   0.954E-03    0.162E+00
RMM:  17    -0.367627310177E+03   -0.10665E-02   -0.16341E-04  1350   0.268E-02    0.104E+00
RMM:  18    -0.367628459247E+03   -0.11491E-02   -0.57836E-04  1747   0.535E-02    0.293E-01
RMM:  19    -0.367628593290E+03   -0.13404E-03   -0.17536E-04  1324   0.278E-02    0.366E-02
RMM:  20    -0.367628600874E+03   -0.75841E-05   -0.46774E-05  1300   0.130E-02    0.337E-03
RMM:  21    -0.367628601367E+03   -0.49293E-06   -0.66531E-06  1076   0.503E-03
   1 F= -.34350064E+03 E0= -.34350902E+03  d E =-.343501E+03
       N       E                     dE             d eps       ncg     rms          rms(c)
DAV:   1    -0.366992909247E+03    0.63569E+00   -0.22006E+01  1376   0.820E+00    0.486E+00
RMM:   2    -0.366564901799E+03    0.42801E+00   -0.71676E-01  1296   0.161E+00    0.287E+00
RMM:   3    -0.366339947873E+03    0.22495E+00   -0.52260E-01  1296   0.126E+00    0.521E-01
RMM:   4    -0.366345647636E+03   -0.56998E-02   -0.48918E-02  1296   0.521E-01    0.582E-01
RMM:   5    -0.366346717152E+03   -0.10695E-02   -0.10168E-02  1322   0.218E-01    0.807E-01
RMM:   6    -0.366347156281E+03   -0.43913E-03   -0.38068E-03  1296   0.132E-01    0.527E-01
RMM:   7    -0.366346433986E+03    0.72230E-03   -0.97075E-04  1296   0.712E-02    0.163E-01
RMM:   8    -0.366346376449E+03    0.57537E-04   -0.14284E-04  1299   0.329E-02    0.148E-01
RMM:   9    -0.366346296772E+03    0.79677E-04   -0.53462E-05  1296   0.155E-02    0.803E-02
RMM:  10    -0.366346257389E+03    0.39383E-04   -0.10798E-04  1296   0.178E-02    0.130E-02
RMM:  11    -0.366346258801E+03   -0.14125E-05   -0.11523E-05  1273   0.652E-03    0.105E-02
RMM:  12    -0.366346259086E+03   -0.28438E-06   -0.15858E-06   786   0.262E-03
   2 F= -.34362227E+03 E0= -.34363334E+03  d E =-.121638E+00
       N       E                     dE             d eps       ncg     rms          rms(c)
DAV:   1    -0.367422885898E+03   -0.10766E+01   -0.44220E+00  1360   0.361E+00    0.216E+00
RMM:   2    -0.367334151448E+03    0.88734E-01   -0.13076E-01  1296   0.701E-01    0.129E+00
RMM:   3    -0.367286914004E+03    0.47237E-01   -0.10886E-01  1296   0.567E-01    0.237E-01
RMM:   4    -0.367287983571E+03   -0.10696E-02   -0.96513E-03  1296   0.233E-01    0.255E-01
RMM:   5    -0.367288196197E+03   -0.21263E-03   -0.19216E-03  1322   0.967E-02    0.307E-01
RMM:   6    -0.367288419784E+03   -0.22359E-03   -0.10990E-03  1296   0.623E-02    0.383E-01
RMM:   7    -0.367288297628E+03    0.12216E-03   -0.22372E-04  1300   0.351E-02    0.286E-01
RMM:   8    -0.367288286112E+03    0.11516E-04   -0.48650E-05  1403   0.169E-02    0.296E-01
RMM:   9    -0.367288238722E+03    0.47390E-04   -0.84348E-06  1232   0.692E-03    0.277E-01
RMM:  10    -0.367288132583E+03    0.10614E-03   -0.28896E-05  1300   0.936E-03    0.224E-01
RMM:  11    -0.367288125329E+03    0.72535E-05   -0.35397E-06   865   0.358E-03    0.222E-01
RMM:  12    -0.367288072824E+03    0.52506E-04   -0.16483E-05  1313   0.672E-03    0.202E-01
RMM:  13    -0.367287976722E+03    0.96102E-04   -0.99381E-05  1751   0.157E-02    0.138E-01
RMM:  14    -0.367287975742E+03    0.98009E-06   -0.82913E-07   770   0.212E-03
   3 F= -.34393469E+03 E0= -.34394469E+03  d E =-.434059E+00
