  64  64   0   0
  0.1976958E+02  0.1077979E-08  0.1083395E-08  0.1083392E-08  0.5000000E-15
  1.000000000000000E-004
  CAR 
 Si64                                    
     11.38571670     -8.15754689  301      6.24687198      1.00000000
     -8.158  0.0000E+00  0.0000E+00
     -8.092  0.0000E+00  0.0000E+00
     -8.027  0.0000E+00  0.0000E+00
     -7.962  0.0000E+00  0.0000E+00
     -7.897  0.0000E+00  0.0000E+00
     -7.832  0.0000E+00  0.0000E+00
     -7.767 -0.1119E-28 -0.7288E-30
     -7.702 -0.1813E-26 -0.1188E-27
     -7.636 -0.2382E-24 -0.1564E-25
     -7.571 -0.2526E-22 -0.1661E-23
     -7.506 -0.2162E-20 -0.1425E-21
     -7.441 -0.1491E-18 -0.9858E-20
     -7.376 -0.8296E-17 -0.5503E-18
     -7.311 -0.3612E-15 -0.2408E-16
     -7.246 -0.1298E-13 -0.8694E-15
     -7.180 -0.3753E-12 -0.2532E-13
     -7.115 -0.8720E-11 -0.5934E-12
     -7.050 -0.1625E-09 -0.1118E-10
     -6.985 -0.2426E-08 -0.1693E-09
     -6.920 -0.2894E-07 -0.2055E-08
     -6.855 -0.2749E-06 -0.1996E-07
     -6.790 -0.2071E-05 -0.1549E-06
     -6.724 -0.1228E-04 -0.9549E-06
     -6.659 -0.5677E-04 -0.4653E-05
     -6.594 -0.2009E-03 -0.1774E-04
     -6.529 -0.5257E-03 -0.5198E-04
     -6.464 -0.9372E-03 -0.1130E-03
     -6.399 -0.8233E-03 -0.1667E-03
     -6.334  0.8700E-03 -0.1100E-03
     -6.268  0.4458E-02  0.1805E-03
     -6.203  0.8497E-02  0.7340E-03
     -6.138  0.1211E-01  0.1523E-02
     -6.073  0.1954E-01  0.2796E-02
     -6.008  0.3798E-01  0.5270E-02
     -5.943  0.6599E-01  0.9569E-02
     -5.877  0.8990E-01  0.1543E-01
     -5.812  0.1024E+00  0.2210E-01
     -5.747  0.1182E+00  0.2980E-01
     -5.682  0.1530E+00  0.3977E-01
     -5.617  0.1914E+00  0.5224E-01
     -5.552  0.2004E+00  0.6529E-01
     -5.487  0.1763E+00  0.7678E-01
     -5.421  0.1488E+00  0.8647E-01
     -5.356  0.1355E+00  0.9530E-01
     -5.291  0.1228E+00  0.1033E+00
     -5.226  0.9909E-01  0.1098E+00
     -5.161  0.7644E-01  0.1147E+00
     -5.096  0.7114E-01  0.1194E+00
     -5.031  0.8972E-01  0.1252E+00
     -4.965  0.1429E+00  0.1345E+00
     -4.900  0.2401E+00  0.1502E+00
     -4.835  0.3547E+00  0.1733E+00
     -4.770  0.4336E+00  0.2015E+00
     -4.705  0.4599E+00  0.2315E+00
     -4.640  0.4637E+00  0.2617E+00
     -4.575  0.4517E+00  0.2911E+00
     -4.509  0.3846E+00  0.3162E+00
     -4.444  0.2477E+00  0.3323E+00
     -4.379  0.9409E-01  0.3384E+00
     -4.314 -0.5317E-02  0.3381E+00
     -4.249 -0.1724E-01  0.3370E+00
     -4.184  0.5610E-01  0.3406E+00
     -4.119  0.1960E+00  0.3534E+00
     -4.053  0.3636E+00  0.3771E+00
     -3.988  0.4956E+00  0.4094E+00
     -3.923  0.5310E+00  0.4439E+00
     -3.858  0.4583E+00  0.4738E+00
     -3.793  0.3315E+00  0.4954E+00
     -3.728  0.2331E+00  0.5106E+00
     -3.663  0.2254E+00  0.5253E+00
     -3.597  0.3241E+00  0.5464E+00
     -3.532  0.4888E+00  0.5782E+00
     -3.467  0.6410E+00  0.6200E+00
     -3.402  0.7170E+00  0.6667E+00
     -3.337  0.7070E+00  0.7128E+00
     -3.272  0.6377E+00  0.7543E+00
     -3.207  0.5391E+00  0.7894E+00
     -3.141  0.4482E+00  0.8186E+00
     -3.076  0.4067E+00  0.8451E+00
     -3.011  0.4133E+00  0.8720E+00
     -2.946  0.4015E+00  0.8982E+00
     -2.881  0.3124E+00  0.9185E+00
     -2.816  0.1687E+00  0.9295E+00
     -2.751  0.4324E-01  0.9323E+00
     -2.685 -0.2143E-01  0.9309E+00
     -2.620 -0.3208E-01  0.9289E+00
     -2.555 -0.5564E-02  0.9285E+00
     -2.490  0.5365E-01  0.9320E+00
     -2.425  0.1332E+00  0.9407E+00
     -2.360  0.1932E+00  0.9533E+00
     -2.295  0.1900E+00  0.9656E+00
     -2.229  0.1217E+00  0.9736E+00
     -2.164  0.3976E-01  0.9762E+00
     -2.099  0.1476E-01  0.9771E+00
     -2.034  0.9628E-01  0.9834E+00
     -1.969  0.2821E+00  0.1002E+01
     -1.904  0.4994E+00  0.1034E+01
     -1.839  0.6302E+00  0.1075E+01
     -1.773  0.5930E+00  0.1114E+01
     -1.708  0.4120E+00  0.1141E+01
     -1.643  0.1957E+00  0.1154E+01
     -1.578  0.5035E-01  0.1157E+01
     -1.513  0.1859E-01  0.1158E+01
     -1.448  0.7553E-01  0.1163E+01
     -1.383  0.1568E+00  0.1173E+01
     -1.317  0.1982E+00  0.1186E+01
     -1.252  0.1786E+00  0.1198E+01
     -1.187  0.1348E+00  0.1207E+01
     -1.122  0.1308E+00  0.1215E+01
     -1.057  0.2013E+00  0.1228E+01
     -0.992  0.3128E+00  0.1249E+01
     -0.927  0.3858E+00  0.1274E+01
     -0.861  0.3824E+00  0.1299E+01
     -0.796  0.3651E+00  0.1322E+01
     -0.731  0.4379E+00  0.1351E+01
     -0.666  0.6328E+00  0.1392E+01
     -0.601  0.8643E+00  0.1448E+01
     -0.536  0.9810E+00  0.1512E+01
     -0.471  0.8735E+00  0.1569E+01
     -0.405  0.5728E+00  0.1607E+01
     -0.340  0.2418E+00  0.1622E+01
     -0.275  0.5011E-01  0.1626E+01
     -0.210  0.5913E-01  0.1629E+01
     -0.145  0.2061E+00  0.1643E+01
     -0.080  0.3601E+00  0.1666E+01
     -0.015  0.4104E+00  0.1693E+01
      0.051  0.3397E+00  0.1715E+01
      0.116  0.2178E+00  0.1729E+01
      0.181  0.1225E+00  0.1737E+01
      0.246  0.8817E-01  0.1743E+01
      0.311  0.1172E+00  0.1751E+01
      0.376  0.2011E+00  0.1764E+01
      0.441  0.3198E+00  0.1785E+01
      0.507  0.4330E+00  0.1813E+01
      0.572  0.4831E+00  0.1844E+01
      0.637  0.4269E+00  0.1872E+01
      0.702  0.2816E+00  0.1890E+01
      0.767  0.1221E+00  0.1898E+01
      0.832  0.1697E-01  0.1900E+01
      0.897 -0.2109E-01  0.1898E+01
      0.963 -0.2080E-01  0.1897E+01
      1.028 -0.1245E-01  0.1896E+01
      1.093 -0.1075E-01  0.1895E+01
      1.158 -0.1981E-01  0.1894E+01
      1.223 -0.3630E-01  0.1892E+01
      1.288 -0.3857E-01  0.1889E+01
      1.354  0.2550E-01  0.1891E+01
      1.419  0.2168E+00  0.1905E+01
      1.484  0.5322E+00  0.1940E+01
      1.549  0.8428E+00  0.1994E+01
      1.614  0.9556E+00  0.2057E+01
      1.679  0.7883E+00  0.2108E+01
      1.744  0.4712E+00  0.2139E+01
      1.810  0.2354E+00  0.2154E+01
      1.875  0.2053E+00  0.2167E+01
      1.940  0.3147E+00  0.2188E+01
      2.005  0.4046E+00  0.2214E+01
      2.070  0.3846E+00  0.2239E+01
      2.135  0.3165E+00  0.2260E+01
      2.200  0.3631E+00  0.2284E+01
      2.266  0.6412E+00  0.2325E+01
      2.331  0.1086E+01  0.2396E+01
      2.396  0.1450E+01  0.2491E+01
      2.461  0.1481E+01  0.2587E+01
      2.526  0.1137E+01  0.2661E+01
      2.591  0.6195E+00  0.2702E+01
      2.656  0.1862E+00  0.2714E+01
      2.722 -0.4490E-01  0.2711E+01
      2.787 -0.1114E+00  0.2704E+01
      2.852 -0.8113E-01  0.2698E+01
      2.917  0.4142E-01  0.2701E+01
      2.982  0.2930E+00  0.2720E+01
      3.047  0.6623E+00  0.2763E+01
      3.112  0.1045E+01  0.2831E+01
      3.178  0.1306E+01  0.2916E+01
      3.243  0.1373E+01  0.3006E+01
      3.308  0.1273E+01  0.3089E+01
      3.373  0.1073E+01  0.3159E+01
      3.438  0.8419E+00  0.3213E+01
      3.503  0.6556E+00  0.3256E+01
      3.568  0.5972E+00  0.3295E+01
      3.634  0.6732E+00  0.3339E+01
      3.699  0.7559E+00  0.3388E+01
      3.764  0.6987E+00  0.3434E+01
      3.829  0.5159E+00  0.3467E+01
      3.894  0.3733E+00  0.3492E+01
      3.959  0.3866E+00  0.3517E+01
      4.024  0.4974E+00  0.3549E+01
      4.090  0.5779E+00  0.3587E+01
      4.155  0.5922E+00  0.3625E+01
      4.220  0.5980E+00  0.3664E+01
      4.285  0.6337E+00  0.3706E+01
      4.350  0.6819E+00  0.3750E+01
      4.415  0.7338E+00  0.3798E+01
      4.480  0.8116E+00  0.3851E+01
      4.546  0.9066E+00  0.3910E+01
      4.611  0.9439E+00  0.3971E+01
      4.676  0.8398E+00  0.4026E+01
      4.741  0.5918E+00  0.4065E+01
      4.806  0.2979E+00  0.4084E+01
      4.871  0.8674E-01  0.4090E+01
      4.936  0.3583E-01  0.4092E+01
      5.002  0.1392E+00  0.4101E+01
      5.067  0.3141E+00  0.4121E+01
      5.132  0.4384E+00  0.4150E+01
      5.197  0.4258E+00  0.4178E+01
      5.262  0.2899E+00  0.4197E+01
      5.327  0.1244E+00  0.4205E+01
      5.392  0.1943E-01  0.4206E+01
      5.458  0.8048E-02  0.4207E+01
      5.523  0.6978E-01  0.4211E+01
      5.588  0.1527E+00  0.4221E+01
      5.653  0.1988E+00  0.4234E+01
      5.718  0.1810E+00  0.4246E+01
      5.783  0.1231E+00  0.4254E+01
      5.848  0.7135E-01  0.4258E+01
      5.914  0.4677E-01  0.4261E+01
      5.979  0.3699E-01  0.4264E+01
      6.044  0.2406E-01  0.4265E+01
      6.109  0.6402E-02  0.4266E+01
      6.174 -0.3115E-02  0.4266E+01
      6.239  0.1151E-01  0.4266E+01
      6.304  0.5829E-01  0.4270E+01
      6.370  0.1253E+00  0.4278E+01
      6.435  0.1787E+00  0.4290E+01
      6.500  0.1841E+00  0.4302E+01
      6.565  0.1364E+00  0.4311E+01
      6.630  0.6452E-01  0.4315E+01
      6.695  0.9718E-02  0.4316E+01
      6.760  0.3881E-02  0.4316E+01
      6.826  0.6015E-01  0.4320E+01
      6.891  0.1604E+00  0.4330E+01
      6.956  0.2490E+00  0.4347E+01
      7.021  0.2679E+00  0.4364E+01
      7.086  0.2227E+00  0.4379E+01
      7.151  0.1980E+00  0.4391E+01
      7.216  0.2740E+00  0.4409E+01
      7.282  0.4244E+00  0.4437E+01
      7.347  0.5224E+00  0.4471E+01
      7.412  0.4660E+00  0.4501E+01
      7.477  0.2862E+00  0.4520E+01
      7.542  0.1268E+00  0.4528E+01
      7.607  0.1334E+00  0.4537E+01
      7.672  0.3479E+00  0.4560E+01
      7.738  0.6626E+00  0.4603E+01
      7.803  0.8796E+00  0.4660E+01
      7.868  0.8681E+00  0.4717E+01
      7.933  0.6822E+00  0.4761E+01
      7.998  0.5060E+00  0.4794E+01
      8.063  0.4901E+00  0.4826E+01
      8.129  0.6531E+00  0.4868E+01
      8.194  0.9041E+00  0.4927E+01
      8.259  0.1111E+01  0.5000E+01
      8.324  0.1169E+01  0.5076E+01
      8.389  0.1053E+01  0.5145E+01
      8.454  0.8228E+00  0.5198E+01
      8.519  0.5711E+00  0.5235E+01
      8.585  0.3698E+00  0.5259E+01
      8.650  0.2482E+00  0.5276E+01
      8.715  0.1995E+00  0.5289E+01
      8.780  0.2091E+00  0.5302E+01
      8.845  0.2663E+00  0.5320E+01
      8.910  0.3354E+00  0.5341E+01
      8.975  0.3502E+00  0.5364E+01
      9.041  0.2745E+00  0.5382E+01
      9.106  0.1471E+00  0.5392E+01
      9.171  0.4204E-01  0.5394E+01
      9.236 -0.2258E-02  0.5394E+01
      9.301  0.1445E-02  0.5394E+01
      9.366  0.2003E-01  0.5396E+01
      9.431  0.2969E-01  0.5398E+01
      9.497  0.2491E-01  0.5399E+01
      9.562  0.1301E-01  0.5400E+01
      9.627  0.3093E-02  0.5400E+01
      9.692 -0.1283E-02  0.5400E+01
      9.757 -0.1752E-02  0.5400E+01
      9.822 -0.9939E-03  0.5400E+01
      9.887 -0.3771E-03  0.5400E+01
      9.953 -0.1054E-03  0.5400E+01
     10.018 -0.2254E-04  0.5400E+01
     10.083 -0.3758E-05  0.5400E+01
     10.148 -0.4935E-06  0.5400E+01
     10.213 -0.5139E-07  0.5400E+01
     10.278 -0.4264E-08  0.5400E+01
     10.343 -0.2827E-09  0.5400E+01
     10.409 -0.1502E-10  0.5400E+01
     10.474 -0.6401E-12  0.5400E+01
     10.539 -0.2191E-13  0.5400E+01
     10.604 -0.6107E-15  0.5400E+01
     10.669 -0.1420E-16  0.5400E+01
     10.734  0.0000E+00  0.5400E+01
     10.799  0.0000E+00  0.5400E+01
     10.865  0.0000E+00  0.5400E+01
     10.930  0.0000E+00  0.5400E+01
     10.995  0.0000E+00  0.5400E+01
     11.060  0.0000E+00  0.5400E+01
     11.125  0.0000E+00  0.5400E+01
     11.190  0.0000E+00  0.5400E+01
     11.255  0.0000E+00  0.5400E+01
     11.321  0.0000E+00  0.5400E+01
     11.386  0.0000E+00  0.5400E+01
