 vasp.6.4.3 19Mar24 (build Oct 21 2024 22:36:34) complex                        
  
 executed on             LinuxIFC date 2024.11.01  22:46:16
 running   96 mpi-ranks, on    1 nodes
 distrk:  each k-point on   24 cores,    4 groups
 distr:  one band on NCORE=  12 cores,    2 groups


--------------------------------------------------------------------------------------------------------


 INCAR:
   SYSTEM = Si64
   ISTART = 0
   ICHARG = 2
   LREAL = Auto
   PREC = Accurate
   LWAVE = .False.
   LCHARG = .False.
   ADDGRID = .True.
   ENCUT = 400
   GGA = PS
   GGA_COMPAT = .FALSE.
   ISMEAR = 1
   SIGMA = 0.2
   NELM = 60
   NELMIN = 8
   EDIFF = 1e-06
   EDIFFG = -0.01
   NSW = 60
   IBRION = 2
   ISIF = 2
   KPAR = 4
   NPAR = 2
   ALGO = Fast

 POTCAR:    PAW_PBE Si 05Jan2001                  
 POTCAR:    PAW_PBE Si 05Jan2001                  
   VRHFIN =Si: s2p2                                                                                 
   LEXCH  = PE                                                                                      
   EATOM  =   103.0669 eV,    7.5752 Ry                                                             
                                                                                                    
   TITEL  = PAW_PBE Si 05Jan2001                                                                    
   LULTRA =        F    use ultrasoft PP ?                                                          
   IUNSCR =        1    unscreen: 0-lin 1-nonlin 2-no                                               
   RPACOR =    1.500    partial core radius                                                         
   POMASS =   28.085; ZVAL   =    4.000    mass and valenz                                          
   RCORE  =    1.900    outmost cutoff radius                                                       
   RWIGS  =    2.480; RWIGS  =    1.312    wigner-seitz radius (au A)                               
   ENMAX  =  245.345; ENMIN  =  184.009 eV                                                          
   ICORE  =        2    local potential                                                             
   LCOR   =        T    correct aug charges                                                         
   LPAW   =        T    paw PP                                                                      
   EAUG   =  322.069                                                                                
   DEXC   =    0.000                                                                                
   RMAX   =    1.950    core radius for proj-oper                                                   
   RAUG   =    1.300    factor for augmentation sphere                                              
   RDEP   =    1.993    radius for radial grids                                                     
   RDEPT  =    1.837    core radius for aug-charge                                                  
                                                                                                    
   Atomic configuration                                                                             
    6 entries                                                                                       
     n  l   j            E        occ.                                                              
     1  0  0.50     -1785.8828   2.0000                                                             
     2  0  0.50      -139.4969   2.0000                                                             
     2  1  1.50       -95.5546   6.0000                                                             
     3  0  0.50       -10.8127   2.0000                                                             
     3  1  0.50        -4.0811   2.0000                                                             
     3  2  1.50        -4.0817   0.0000                                                             
   Description                                                                                      
     l       E           TYP  RCUT    TYP  RCUT                                                     
     0    -10.8127223     23  1.900                                                                 
     0     -7.6451159     23  1.900                                                                 
     1     -4.0811372     23  1.900                                                                 
     1      2.4879257     23  1.900                                                                 
     2     -4.0817478      7  1.900                                                                 
  local pseudopotential read in
  partial core-charges read in
  partial kinetic energy density read in
  atomic valenz-charges read in
  non local Contribution for L=           0  read in
    real space projection operators read in
  non local Contribution for L=           0  read in
    real space projection operators read in
  non local Contribution for L=           1  read in
    real space projection operators read in
  non local Contribution for L=           1  read in
    real space projection operators read in
    PAW grid and wavefunctions read in
 
   number of l-projection  operators is LMAX  =           4
   number of lm-projection operators is LMMAX =           8
 
 Optimization of the real space projectors (new method)

 maximal supplied QI-value         = 19.84
 optimisation between [QCUT,QGAM] = [ 10.12, 20.44] = [ 28.68,116.96] Ry 
 Optimized for a Real-space Cutoff    1.38 Angstroem

   l    n(q)    QCUT    max X(q) W(low)/X(q) W(high)/X(q)  e(spline) 
   0      8    10.119   159.560    0.58E-04    0.11E-03    0.54E-07
   0      8    10.119   115.863    0.56E-04    0.11E-03    0.54E-07
   1      8    10.119    88.339    0.22E-03    0.17E-03    0.19E-06
   1      8    10.119    48.592    0.22E-03    0.17E-03    0.18E-06
 -----------------------------------------------------------------------------
|                                                                             |
|               ----> ADVICE to this user running VASP <----                  |
|                                                                             |
|     You enforced a specific xc type in the INCAR file but a different       |
|     type was found in the POTCAR file.                                      |
|     I HOPE YOU KNOW WHAT YOU ARE DOING!                                     |
|                                                                             |
 -----------------------------------------------------------------------------

  PAW_PBE Si 05Jan2001                  :
 energy of atom  1       EATOM= -103.0669
 kinetic energy error for atom=    0.0012 (will be added to EATOM!!)
 
 
 POSCAR: Si8
  positions in direct lattice
  velocities in cartesian coordinates


 exchange-correlation table for PS
   RHO(1)=    0.500       N(1)  =     2000
   RHO(2)=  100.500       N(2)  =     4000
 


--------------------------------------------------------------------------------------------------------


 ion  position               nearest neighbor table
   1  0.000  0.000  0.000-  15 2.34  57 2.34  44 2.35  30 2.35
   2  0.000  0.000  0.500-  16 2.34  58 2.34  43 2.35  29 2.35
   3  0.000  0.500  0.000-  13 2.34  59 2.34  42 2.35  32 2.35
   4  0.000  0.500  0.500-  14 2.34  60 2.34  41 2.35  31 2.35
   5  0.500  0.000  0.000-  11 2.34  61 2.34  48 2.35  26 2.35
   6  0.500  0.000  0.500-  12 2.34  62 2.34  47 2.35  25 2.35
   7  0.500  0.500  0.000-   9 2.34  63 2.34  46 2.35  28 2.35
   8  0.500  0.500  0.500-  10 2.34  64 2.34  45 2.35  27 2.35
   9  0.375  0.375  0.125-   7 2.34  49 2.34  35 2.35  21 2.35
  10  0.375  0.375  0.625-   8 2.34  50 2.34  36 2.35  22 2.35
  11  0.375  0.875  0.125-   5 2.34  51 2.34  33 2.35  23 2.35
  12  0.375  0.875  0.625-   6 2.34  52 2.34  34 2.35  24 2.35
  13  0.875  0.375  0.125-   3 2.34  53 2.34  39 2.35  17 2.35
  14  0.875  0.375  0.625-   4 2.34  54 2.34  40 2.35  18 2.35
  15  0.875  0.875  0.125-   1 2.34  55 2.34  37 2.35  19 2.35
  16  0.875  0.875  0.625-   2 2.34  56 2.34  38 2.35  20 2.35
  17  0.000  0.250  0.250-  29 2.34  41 2.34  13 2.35  57 2.35
  18  0.000  0.250  0.750-  30 2.34  42 2.34  14 2.35  58 2.35
  19  0.000  0.750  0.250-  31 2.34  43 2.34  15 2.35  59 2.35
  20  0.000  0.750  0.750-  32 2.34  44 2.34  16 2.35  60 2.35
  21  0.500  0.250  0.250-  25 2.34  45 2.34   9 2.35  61 2.35
  22  0.500  0.250  0.750-  26 2.34  46 2.34  10 2.35  62 2.35
  23  0.500  0.750  0.250-  27 2.34  47 2.34  11 2.35  63 2.35
  24  0.500  0.750  0.750-  28 2.34  48 2.34  12 2.35  64 2.35
  25  0.375  0.125  0.375-  21 2.34  33 2.34   6 2.35  50 2.35
  26  0.375  0.125  0.875-  22 2.34  34 2.34   5 2.35  49 2.35
  27  0.375  0.625  0.375-  23 2.34  35 2.34   8 2.35  52 2.35
  28  0.375  0.625  0.875-  24 2.34  36 2.34   7 2.35  51 2.35
  29  0.875  0.125  0.375-  17 2.34  37 2.34   2 2.35  54 2.35
  30  0.875  0.125  0.875-  18 2.34  38 2.34   1 2.35  53 2.35
  31  0.875  0.625  0.375-  19 2.34  39 2.34   4 2.35  56 2.35
  32  0.875  0.625  0.875-  20 2.34  40 2.34   3 2.35  55 2.35
  33  0.250  0.000  0.250-  25 2.34  43 2.34  11 2.35  57 2.35
  34  0.250  0.000  0.750-  26 2.34  44 2.34  12 2.35  58 2.35
  35  0.250  0.500  0.250-  27 2.34  41 2.34   9 2.35  59 2.35
  36  0.250  0.500  0.750-  28 2.34  42 2.34  10 2.35  60 2.35
  37  0.750  0.000  0.250-  29 2.34  47 2.34  15 2.35  61 2.35
  38  0.750  0.000  0.750-  30 2.34  48 2.34  16 2.35  62 2.35
  39  0.750  0.500  0.250-  31 2.34  45 2.34  13 2.35  63 2.35
  40  0.750  0.500  0.750-  32 2.34  46 2.34  14 2.35  64 2.35
  41  0.125  0.375  0.375-  17 2.34  35 2.34   4 2.35  50 2.35
  42  0.125  0.375  0.875-  18 2.34  36 2.34   3 2.35  49 2.35
  43  0.125  0.875  0.375-  19 2.34  33 2.34   2 2.35  52 2.35
  44  0.125  0.875  0.875-  20 2.34  34 2.34   1 2.35  51 2.35
  45  0.625  0.375  0.375-  21 2.34  39 2.34   8 2.35  54 2.35
  46  0.625  0.375  0.875-  22 2.34  40 2.34   7 2.35  53 2.35
  47  0.625  0.875  0.375-  23 2.34  37 2.34   6 2.35  56 2.35
  48  0.625  0.875  0.875-  24 2.34  38 2.34   5 2.35  55 2.35
  49  0.250  0.250  0.000-   9 2.34  57 2.34  42 2.35  26 2.35
  50  0.250  0.250  0.500-  10 2.34  58 2.34  41 2.35  25 2.35
  51  0.250  0.750  0.000-  11 2.34  59 2.34  44 2.35  28 2.35
  52  0.250  0.750  0.500-  12 2.34  60 2.34  43 2.35  27 2.35
  53  0.750  0.250  0.000-  13 2.34  61 2.34  46 2.35  30 2.35
  54  0.750  0.250  0.500-  14 2.34  62 2.34  45 2.35  29 2.35
  55  0.750  0.750  0.000-  15 2.34  63 2.34  48 2.35  32 2.35
  56  0.750  0.750  0.500-  16 2.34  64 2.34  47 2.35  31 2.35
  57  0.125  0.125  0.125-   1 2.34  49 2.34  33 2.35  17 2.35
  58  0.125  0.125  0.625-   2 2.34  50 2.34  34 2.35  18 2.35
  59  0.125  0.625  0.125-   3 2.34  51 2.34  35 2.35  19 2.35
  60  0.125  0.625  0.625-   4 2.34  52 2.34  36 2.35  20 2.35
  61  0.625  0.125  0.125-   5 2.34  53 2.34  37 2.35  21 2.35
  62  0.625  0.125  0.625-   6 2.34  54 2.34  38 2.35  22 2.35
  63  0.625  0.625  0.125-   7 2.34  55 2.34  39 2.35  23 2.35
  64  0.625  0.625  0.625-   8 2.34  56 2.34  40 2.35  24 2.35
 
  LATTYP: Found a simple monoclinic cell.
 ALAT       =    10.7797856185
 B/A-ratio  =     1.0050218978
 C/A-ratio  =     1.0050250385
 COS(beta)  =    -0.0050125687
  
  Lattice vectors:
  
 A1 = (  10.7797515920,  -0.0270850040,   0.0000000000)
 A2 = (   0.0000000000,   0.0000000000, -10.8339206000)
 A3 = (  -0.0270850040,  10.8339206000,   0.0000000000)


Analysis of symmetry for initial positions (statically):
=====================================================================
 Subroutine PRICEL returns following result:
 
  LATTYP: Found a base centered monoclinic cell.
 ALAT       =     5.3898928093
 B/A-ratio  =     1.0050218978
 C/A-ratio  =     0.7071067483
 COS(beta)  =    -0.7035445818
  
  Lattice vectors:
  
 A1 = (  -2.6949378980,   0.0067712510,  -2.7084801500)
 A2 = (  -2.6949378980,   0.0067712510,   2.7084801500)
 A3 = (   2.6881666470,   2.7017088990,   0.0000000000)
 
  32 primitive cells build up your supercell.
 

 Routine SETGRP: Setting up the symmetry group for a 
 simple monoclinic supercell.


 Subroutine GETGRP returns: Found  4 space group operations
 (whereof  2 operations were pure point group operations)
 out of a pool of  4 trial point group operations.


The static configuration has the point symmetry C_2 .
 The point group associated with its full space group is C_2h.


Analysis of symmetry for dynamics (positions and initial velocities):
=====================================================================
 Subroutine PRICEL returns following result:
 
  LATTYP: Found a base centered monoclinic cell.
 ALAT       =     5.3898928093
 B/A-ratio  =     1.0050218978
 C/A-ratio  =     0.7071067483
 COS(beta)  =    -0.7035445818
  
  Lattice vectors:
  
 A1 = (  -2.6949378980,   0.0067712510,  -2.7084801500)
 A2 = (  -2.6949378980,   0.0067712510,   2.7084801500)
 A3 = (   2.6881666470,   2.7017088990,   0.0000000000)
 
  32 primitive cells build up your supercell.
 

 Routine SETGRP: Setting up the symmetry group for a 
 simple monoclinic supercell.


 Subroutine GETGRP returns: Found  4 space group operations
 (whereof  2 operations were pure point group operations)
 out of a pool of  4 trial point group operations.


The dynamic configuration has the point symmetry C_2 .
 The point group associated with its full space group is C_2h.


 Subroutine INISYM returns: Found  4 space group operations
 (whereof  2 operations are pure point group operations),
 and found    32 'primitive' translations


----------------------------------------------------------------------------------------

                                     Primitive cell                                     

  volume of cell :      39.5392

  direct lattice vectors                    reciprocal lattice vectors
    -2.694937898  0.006771251 -2.708480150    -0.185070359  0.184142698 -0.184605377
    -2.694937898  0.006771251  2.708480150    -0.185070359  0.184142698  0.184605377
     2.688166647  2.701708899  0.000000000     0.000927678  0.369213074  0.000000000

  length of vectors
     3.820811543  3.820811543  3.811229578     0.319747895  0.319747895  0.369214239

  position of ions in fractional coordinates (direct lattice)
     0.000000000  0.000000000  0.000000000
     0.750000000  0.250000000  0.500000000

  ion indices of the primitive-cell ions
   primitive index   ion index
                 1           1
                 2          15

----------------------------------------------------------------------------------------

 
 
 KPOINTS: Automatic mesh                          

Automatic generation of k-mesh.
 Grid dimensions read from file:
 generate k-points for:    2    2    2

 Generating k-lattice:

  Cartesian coordinates                     Fractional coordinates (reciprocal lattice)
     0.046383549  0.000115960  0.000000000     0.500000000 -0.000000000  0.000000000
     0.000115960  0.046151634  0.000000000     0.000000000  0.500000000  0.000000000
     0.000000000  0.000000000  0.046151344     0.000000000  0.000000000  0.500000000

  Length of vectors
     0.046383694  0.046151780  0.046151344

  Shift w.r.t. Gamma in fractional coordinates (k-lattice)
     0.000000000  0.000000000  0.000000000

 
 Subroutine IBZKPT returns following result:
 ===========================================
 
 Found      8 irreducible k-points:
 
 Following reciprocal coordinates:
            Coordinates               Weight
  0.000000  0.000000  0.000000      1.000000
  0.500000 -0.000000  0.000000      1.000000
  0.000000  0.500000  0.000000      1.000000
  0.500000  0.500000  0.000000      1.000000
  0.000000  0.000000  0.500000      1.000000
  0.500000 -0.000000  0.500000      1.000000
  0.000000  0.500000  0.500000      1.000000
  0.500000  0.500000  0.500000      1.000000
 
 Following cartesian coordinates:
            Coordinates               Weight
  0.000000  0.000000  0.000000      1.000000
  0.046384  0.000116  0.000000      1.000000
  0.000116  0.046152  0.000000      1.000000
  0.046500  0.046268  0.000000      1.000000
  0.000000  0.000000  0.046151      1.000000
  0.046384  0.000116  0.046151      1.000000
  0.000116  0.046152  0.046151      1.000000
  0.046500  0.046268  0.046151      1.000000
 


--------------------------------------------------------------------------------------------------------




 Dimension of arrays:
   k-points           NKPTS =      8   k-points in BZ     NKDIM =      8   number of bands    NBANDS=    162
   number of dos      NEDOS =    301   number of ions     NIONS =     64
   non local maximal  LDIM  =      4   non local SUM 2l+1 LMDIM =      8
   total plane-waves  NPLWV = 362880
   max r-space proj   IRMAX =   3210   max aug-charges    IRDMAX=  76905
   dimension x,y,z NGX =    70 NGY =   72 NGZ =   72
   dimension x,y,z NGXF=   140 NGYF=  144 NGZF=  144
   support grid    NGXF=   280 NGYF=  288 NGZF=  288
   ions per type =              64
   NGX,Y,Z   is equivalent  to a cutoff of  10.80, 11.05, 11.05 a.u.
   NGXF,Y,Z  is equivalent  to a cutoff of  21.59, 22.10, 22.10 a.u.

 SYSTEM =  Si64                                    
 POSCAR =  Si8                                     

 Startparameter for this run:
   NWRITE =      2    write-flag & timer
   PREC   = accura    normal or accurate (medium, high low for compatibility)
   ISTART =      0    job   : 0-new  1-cont  2-samecut
   ICHARG =      2    charge: 1-file 2-atom 10-const
   ISPIN  =      1    spin polarized calculation?
   LNONCOLLINEAR =      F non collinear calculations
   LSORBIT =      F    spin-orbit coupling
   INIWAV =      1    electr: 0-lowe 1-rand  2-diag
   LASPH  =      F    aspherical Exc in radial PAW
 Electronic Relaxation 1
   ENCUT  =  400.0 eV  29.40 Ry    5.42 a.u.  17.58 17.67 17.67*2*pi/ulx,y,z
   ENINI  =  400.0     initial cutoff
   ENAUG  =  322.1 eV  augmentation charge cutoff
   NELM   =     60;   NELMIN=  8; NELMDL= -5     # of ELM steps 
   EDIFF  = 0.1E-05   stopping-criterion for ELM
   LREAL  =      T    real-space projection
   NLSPLINE    = F    spline interpolate recip. space projectors
   LCOMPAT=      F    compatible to vasp.4.4
   GGA_COMPAT  = F    GGA compatible to vasp.4.4-vasp.4.6
   LMAXPAW     = -100 max onsite density
   LMAXMIX     =    2 max onsite mixed and CHGCAR
   VOSKOWN=      0    Vosko Wilk Nusair interpolation
   ROPT   =   -0.00025
 Ionic relaxation
   EDIFFG = -.1E-01   stopping-criterion for IOM
   NSW    =     60    number of steps for IOM
   NBLOCK =      1;   KBLOCK =     60    inner block; outer block 
   IBRION =      2    ionic relax: 0-MD 1-quasi-New 2-CG
   NFREE  =      1    steps in history (QN), initial steepest desc. (CG)
   ISIF   =      2    stress and relaxation
   IWAVPR =     11    prediction:  0-non 1-charg 2-wave 3-comb
   ISYM   =      2    0-nonsym 1-usesym 2-fastsym
   LCORR  =      T    Harris-Foulkes like correction to forces

   POTIM  = 0.5000    time-step for ionic-motion
   TEIN   =    0.0    initial temperature
   TEBEG  =    0.0;   TEEND  =   0.0 temperature during run
   SMASS  =  -3.00    Nose mass-parameter (am)
   estimated Nose-frequenzy (Omega)   =  0.10E-29 period in steps = 0.13E+47 mass=  -0.266E-26a.u.
   SCALEE = 1.0000    scale energy and forces
   NPACO  =    256;   APACO  = 10.0  distance and # of slots for P.C.
   PSTRESS=    0.0 pullay stress

  Mass of Ions in am
   POMASS =  28.09
  Ionic Valenz
   ZVAL   =   4.00
  Atomic Wigner-Seitz radii
   RWIGS  =  -1.00
  virtual crystal weights 
   VCA    =   1.00
   NELECT =     256.0000    total number of electrons
   NUPDOWN=      -1.0000    fix difference up-down

 DOS related values:
   EMIN   =  10.00;   EMAX   =-10.00  energy-range for DOS
   EFERMI =   0.00;   METHOD = LEGACY      
   ISMEAR =     1;   SIGMA  =   0.20  broadening in eV -4-tet -1-fermi 0-gaus

 Electronic relaxation 2 (details)
   IALGO  =     68    algorithm
   LDIAG  =      T    sub-space diagonalisation (order eigenvalues)
   LSUBROT=      F    optimize rotation matrix (better conditioning)
   TURBO    =      0    0=normal 1=particle mesh
   IRESTART =      0    0=no restart 2=restart with 2 vectors
   NREBOOT  =      0    no. of reboots
   NMIN     =      0    reboot dimension
   EREF     =   0.00    reference energy to select bands
   IMIX   =      4    mixing-type and parameters
     AMIX     =   0.40;   BMIX     =  1.00
     AMIX_MAG =   1.60;   BMIX_MAG =  1.00
     AMIN     =   0.10
     WC   =   100.;   INIMIX=   1;  MIXPRE=   1;  MAXMIX= -45

 Intra band minimization:
   WEIMIN = 0.0010     energy-eigenvalue tresh-hold
   EBREAK =  0.15E-08  absolut break condition
   DEPER  =   0.30     relativ break condition  

   TIME   =   0.40     timestep for ELM

  volume/ion in A,a.u.               =      19.77       133.41
  Fermi-wavevector in a.u.,A,eV,Ry     =   0.961086  1.816190 12.567522  0.923687
  Thomas-Fermi vector in A             =   2.090427
 
 Write flags
   LWAVE        =      F    write WAVECAR
   LDOWNSAMPLE  =      F    k-point downsampling of WAVECAR
   LCHARG       =      F    write CHGCAR
   LVTOT        =      F    write LOCPOT, total local potential
   LVHAR        =      F    write LOCPOT, Hartree potential only
   WRT_POTENTIAL= false  ! write potential to hdf5 file
   LELF         =      F    write electronic localiz. function (ELF)
   LORBIT       =      0    0 simple, 1 ext, 2 COOP (PROOUT), +10 PAW based schemes


 Dipole corrections
   LMONO      =      F    monopole corrections only (constant potential shift)
   LDIPOL     =      F    correct potential (dipole corrections)
   IDIPOL     =      0    1-x, 2-y, 3-z, 4-all directions 
   EPSILON    =  1.0000000 bulk dielectric constant
   LVACPOTAV  =      F  vacuum potentials using an averaging scheme for the charge density
   VACPOTFLAT =  0.1000000 required flatness to determine vacuum potential
 Exchange correlation treatment:
   GGA     = PS    functional components
   XC_C    = 1    coefficients multiplying the functional components
   LIBXC   =     F    Libxc                    
   VOSKOWN =     0    Vosko Wilk Nusair interpolation
   LHFCALC =     F    Hartree Fock is set to
   LHFONE  =     F    Hartree Fock one center treatment
   AEXX    =    0.0000 exact exchange contribution

 Parameters of functionals:
   PS:
     No parameter
 
 Van der Waals corrections
   IVDW    =     0    specifies the selected vdW correction

 Linear response parameters
   LEPSILON=     F    determine dielectric tensor
   LRPA    =     F    only Hartree local field effects (RPA)
   LNABLA  =     F    use nabla operator in PAW spheres
   LVEL    =     F    velocity operator in full k-point grid
   CSHIFT  =0.1000    complex shift for real part using Kramers Kronig
   OMEGAMAX=  -1.0    maximum frequency
   DEG_THRESHOLD= 0.2000000E-02 threshold for treating states as degnerate
   RTIME   =   -0.100 relaxation time in fs
  (WPLASMAI=    0.000 imaginary part of plasma frequency in eV, 0.658/RTIME)
   DFIELD  = 0.0000000 0.0000000 0.0000000 field for delta impulse in time
 
  Optional k-point grid parameters
   LKPOINTS_OPT  =     F    use optional k-point grid
   KPOINTS_OPT_MODE=     1    mode for optional k-point grid
 
 Orbital magnetization related:
   ORBITALMAG=     F  switch on orbital magnetization
   LCHIMAG   =     F  perturbation theory with respect to B field
   DQ        =  0.001000  dq finite difference perturbation B field
   LLRAUG    =     F  two centre corrections for induced B field
   LBONE     =     F  B-component reconstruction in AE one-centre
   LVGVCALC  =     T  calculate vGv susceptibility
   LVGVAPPL  =     F  apply vGv susceptibility instead of pGv for G=0

 Random number generation:
   RANDOM_GENERATOR = DEFAULT
   PCG_SEED         = not used


--------------------------------------------------------------------------------------------------------


 conjugate gradient relaxation of ions
 charge density and potential will be updated during run
 non-spin polarized calculation
 RMM-DIIS sequential band-by-band and
  variant of blocked Davidson during initial phase
 perform sub-space diagonalisation
    before iterative eigenvector-optimisation
 modified Broyden-mixing scheme, WC =      100.0
 initial mixing is a Kerker type mixing with AMIX =  0.4000 and BMIX =      1.0000
 Hartree-type preconditioning will be used
 using additional bands           34
 real space projection scheme for non local part
 use partial core corrections
 calculate Harris-corrections to forces 
   (improved forces if not selfconsistent)
 use gradient corrections 
 use of overlap-Matrix (Vanderbilt PP)
 Methfessel and Paxton  Order N= 1 SIGMA  =   0.20


--------------------------------------------------------------------------------------------------------


  energy-cutoff  :      400.00
  volume of cell :     1265.25
      direct lattice vectors                 reciprocal lattice vectors
    10.779751592 -0.027085004  0.000000000     0.092767099  0.000231919  0.000000000
    -0.027085004 10.833920600  0.000000000     0.000231919  0.092303268  0.000000000
     0.000000000  0.000000000 10.833920600     0.000000000  0.000000000  0.092302689

  length of vectors
    10.779785619 10.833954456 10.833920600     0.092767389  0.092303560  0.092302689


 
 k-points in units of 2pi/SCALE and weight: Automatic mesh                          
   0.00000000  0.00000000  0.00000000       0.125
   0.04638356  0.00011596  0.00000000       0.125
   0.00011596  0.04615164  0.00000000       0.125
   0.04649952  0.04626760  0.00000000       0.125
   0.00000000  0.00000000  0.04615135       0.125
   0.04638356  0.00011596  0.04615135       0.125
   0.00011596  0.04615164  0.04615135       0.125
   0.04649952  0.04626760  0.04615135       0.125
 
 k-points in reciprocal lattice and weights: Automatic mesh                          
   0.00000000  0.00000000  0.00000000       0.125
   0.50000000 -0.00000000  0.00000000       0.125
   0.00000000  0.50000000  0.00000000       0.125
   0.50000000  0.50000000  0.00000000       0.125
   0.00000000  0.00000000  0.50000000       0.125
   0.50000000 -0.00000000  0.50000000       0.125
   0.00000000  0.50000000  0.50000000       0.125
   0.50000000  0.50000000  0.50000000       0.125
 
 position of ions in fractional coordinates (direct lattice) 
   0.00000000  0.00000000  0.00000000
   0.00000000  0.00000000  0.50000000
   0.00000000  0.50000000  0.00000000
   0.00000000  0.50000000  0.50000000
   0.50000000  0.00000000  0.00000000
   0.50000000  0.00000000  0.50000000
   0.50000000  0.50000000  0.00000000
   0.50000000  0.50000000  0.50000000
   0.37500000  0.37500000  0.12500000
   0.37500000  0.37500000  0.62500000
   0.37500000  0.87500000  0.12500000
   0.37500000  0.87500000  0.62500000
   0.87500000  0.37500000  0.12500000
   0.87500000  0.37500000  0.62500000
   0.87500000  0.87500000  0.12500000
   0.87500000  0.87500000  0.62500000
   0.00000000  0.25000000  0.25000000
   0.00000000  0.25000000  0.75000000
   0.00000000  0.75000000  0.25000000
   0.00000000  0.75000000  0.75000000
   0.50000000  0.25000000  0.25000000
   0.50000000  0.25000000  0.75000000
   0.50000000  0.75000000  0.25000000
   0.50000000  0.75000000  0.75000000
   0.37500000  0.12500000  0.37500000
   0.37500000  0.12500000  0.87500000
   0.37500000  0.62500000  0.37500000
   0.37500000  0.62500000  0.87500000
   0.87500000  0.12500000  0.37500000
   0.87500000  0.12500000  0.87500000
   0.87500000  0.62500000  0.37500000
   0.87500000  0.62500000  0.87500000
   0.25000000  0.00000000  0.25000000
   0.25000000  0.00000000  0.75000000
   0.25000000  0.50000000  0.25000000
   0.25000000  0.50000000  0.75000000
   0.75000000  0.00000000  0.25000000
   0.75000000  0.00000000  0.75000000
   0.75000000  0.50000000  0.25000000
   0.75000000  0.50000000  0.75000000
   0.12500000  0.37500000  0.37500000
   0.12500000  0.37500000  0.87500000
   0.12500000  0.87500000  0.37500000
   0.12500000  0.87500000  0.87500000
   0.62500000  0.37500000  0.37500000
   0.62500000  0.37500000  0.87500000
   0.62500000  0.87500000  0.37500000
   0.62500000  0.87500000  0.87500000
   0.25000000  0.25000000  0.00000000
   0.25000000  0.25000000  0.50000000
   0.25000000  0.75000000  0.00000000
   0.25000000  0.75000000  0.50000000
   0.75000000  0.25000000  0.00000000
   0.75000000  0.25000000  0.50000000
   0.75000000  0.75000000  0.00000000
   0.75000000  0.75000000  0.50000000
   0.12500000  0.12500000  0.12500000
   0.12500000  0.12500000  0.62500000
   0.12500000  0.62500000  0.12500000
   0.12500000  0.62500000  0.62500000
   0.62500000  0.12500000  0.12500000
   0.62500000  0.12500000  0.62500000
   0.62500000  0.62500000  0.12500000
   0.62500000  0.62500000  0.62500000
 
 position of ions in cartesian coordinates  (Angst):
   0.00000000  0.00000000  0.00000000
   0.00000000  0.00000000  5.41696030
  -0.01354250  5.41696030  0.00000000
  -0.01354250  5.41696030  5.41696030
   5.38987580 -0.01354250  0.00000000
   5.38987580 -0.01354250  5.41696030
   5.37633329  5.40341780  0.00000000
   5.37633329  5.40341780  5.41696030
   4.03224997  4.05256335  1.35424007
   4.03224997  4.05256335  6.77120037
   4.01870747  9.46952365  1.35424007
   4.01870747  9.46952365  6.77120037
   9.42212577  4.03902085  1.35424007
   9.42212577  4.03902085  6.77120037
   9.40858326  9.45598115  1.35424007
   9.40858326  9.45598115  6.77120037
  -0.00677125  2.70848015  2.70848015
  -0.00677125  2.70848015  8.12544045
  -0.02031375  8.12544045  2.70848015
  -0.02031375  8.12544045  8.12544045
   5.38310454  2.69493765  2.70848015
   5.38310454  2.69493765  8.12544045
   5.36956204  8.11189795  2.70848015
   5.36956204  8.11189795  8.12544045
   4.03902122  1.34408320  4.06272022
   4.03902122  1.34408320  9.47968052
   4.02547872  6.76104350  4.06272022
   4.02547872  6.76104350  9.47968052
   9.42889702  1.33054070  4.06272022
   9.42889702  1.33054070  9.47968052
   9.41535452  6.74750100  4.06272022
   9.41535452  6.74750100  9.47968052
   2.69493790 -0.00677125  2.70848015
   2.69493790 -0.00677125  8.12544045
   2.68139540  5.41018905  2.70848015
   2.68139540  5.41018905  8.12544045
   8.08481369 -0.02031375  2.70848015
   8.08481369 -0.02031375  8.12544045
   8.07127119  5.39664655  2.70848015
   8.07127119  5.39664655  8.12544045
   1.33731207  4.05933460  4.06272022
   1.33731207  4.05933460  9.47968052
   1.32376957  9.47629490  4.06272022
   1.32376957  9.47629490  9.47968052
   6.72718787  4.04579210  4.06272022
   6.72718787  4.04579210  9.47968052
   6.71364537  9.46275240  4.06272022
   6.71364537  9.46275240  9.47968052
   2.68816665  2.70170890  0.00000000
   2.68816665  2.70170890  5.41696030
   2.67462414  8.11866920  0.00000000
   2.67462414  8.11866920  5.41696030
   8.07804244  2.68816640  0.00000000
   8.07804244  2.68816640  5.41696030
   8.06449994  8.10512670  0.00000000
   8.06449994  8.10512670  5.41696030
   1.34408332  1.35085445  1.35424007
   1.34408332  1.35085445  6.77120037
   1.33054082  6.76781475  1.35424007
   1.33054082  6.76781475  6.77120037
   6.73395912  1.33731195  1.35424007
   6.73395912  1.33731195  6.77120037
   6.72041662  6.75427225  1.35424007
   6.72041662  6.75427225  6.77120037
 


--------------------------------------------------------------------------------------------------------


 k-point     1 :   0.0000 0.0000 0.0000  plane waves:   22963
 k-point     2 :   0.5000-0.0000 0.0000  plane waves:   22968
 k-point     3 :   0.0000 0.5000 0.0000  plane waves:   23004
 k-point     4 :   0.5000 0.5000 0.0000  plane waves:   23004
 k-point     5 :   0.0000 0.0000 0.5000  plane waves:   22972
 k-point     6 :   0.5000-0.0000 0.5000  plane waves:   23000
 k-point     7 :   0.0000 0.5000 0.5000  plane waves:   22984
 k-point     8 :   0.5000 0.5000 0.5000  plane waves:   22836

 maximum and minimum number of plane-waves per node :      1952     1880

 maximum number of plane-waves:     23004
 maximum index in each direction: 
   IXMAX=   17   IYMAX=   17   IZMAX=   17
   IXMIN=  -18   IYMIN=  -18   IZMIN=  -18


 real space projection operators:
  total allocation   :      12251.00 KBytes
  max/ min on nodes  :       1072.00        881.00


 parallel 3D FFT for wavefunctions:
    minimum data exchange during FFTs selected (reduces bandwidth)
 parallel 3D FFT for charge:
    minimum data exchange during FFTs selected (reduces bandwidth)


 total amount of memory used by VASP MPI-rank0    81707. kBytes
=======================================================================

   base      :      30000. kBytes
   nonlr-proj:       4715. kBytes
   fftplans  :      19043. kBytes
   grid      :       7278. kBytes
   one-center:         18. kBytes
   wavefun   :      20653. kBytes
 
     INWAV:  cpu time      0.0000: real time      0.0000
 Broyden mixing: mesh for mixing (old mesh)
   NGX = 35   NGY = 35   NGZ = 35
  (NGX  =140   NGY  =144   NGZ  =144)
  gives a total of  42875 points

 initial charge density was supplied:
 charge density of overlapping atoms calculated
 number of electron     256.0000000 magnetization 
 keeping initial charge density in first step


--------------------------------------------------------------------------------------------------------


 Maximum index for non-local projection operator          282
 Maximum index for augmentation-charges         3791 (set IRDMAX)


--------------------------------------------------------------------------------------------------------


 First call to EWALD:  gamma=   0.164
 Maximum number of real-space cells 3x 3x 3
 Maximum number of reciprocal cells 3x 3x 3

    FEWALD:  cpu time      0.0036: real time      0.0036


--------------------------------------- Ionic step        1  -------------------------------------------




--------------------------------------- Iteration      1(   1)  ---------------------------------------


    POTLOK:  cpu time      0.0940: real time      0.1017
    SETDIJ:  cpu time      0.0833: real time      0.0866
     EDDAV:  cpu time      1.2951: real time      1.3482
       DOS:  cpu time      0.0100: real time      0.0130
    --------------------------------------------
      LOOP:  cpu time      1.4824: real time      1.5495

 eigenvalue-minimisations  :  2592
 total energy-change (2. order) : 0.5634344E+03  (-0.8406186E+04)
 number of electron     256.0000000 magnetization 
 augmentation part      256.0000000 magnetization 

 Free energy of the ion-electron system (eV)
  ---------------------------------------------------
  alpha Z        PSCENC =       108.97757275
  Ewald energy   TEWEN  =     -7343.90943618
  -Hartree energ DENC   =      -346.18882526
  -exchange      EXHF   =         0.00000000
  -V(xc)+E(xc)   XCENC  =      -557.12339758
  PAW double counting   =      5598.62625415    -4492.17844134
  entropy T*S    EENTRO =         0.00762876
  eigenvalues    EBANDS =      1030.42715223
  atomic energy  EATOM  =      6564.79586099
  Solvation  Ediel_sol  =         0.00000000
  ---------------------------------------------------
  free energy    TOTEN  =       563.43436852 eV

  energy without entropy =      563.42673976  energy(sigma->0) =      563.43182560


--------------------------------------------------------------------------------------------------------




--------------------------------------- Iteration      1(   2)  ---------------------------------------


     EDDAV:  cpu time      1.3744: real time      1.3791
       DOS:  cpu time      0.0015: real time      0.0015
    --------------------------------------------
      LOOP:  cpu time      1.3759: real time      1.3806

 eigenvalue-minimisations  :  3080
 total energy-change (2. order) :-0.8732641E+03  (-0.8285155E+03)
 number of electron     256.0000000 magnetization 
 augmentation part      256.0000000 magnetization 

 Free energy of the ion-electron system (eV)
  ---------------------------------------------------
  alpha Z        PSCENC =       108.97757275
  Ewald energy   TEWEN  =     -7343.90943618
  -Hartree energ DENC   =      -346.18882526
  -exchange      EXHF   =         0.00000000
  -V(xc)+E(xc)   XCENC  =      -557.12339758
  PAW double counting   =      5598.62625415    -4492.17844134
  entropy T*S    EENTRO =         0.02211977
  eigenvalues    EBANDS =       157.14859454
  atomic energy  EATOM  =      6564.79586099
  Solvation  Ediel_sol  =         0.00000000
  ---------------------------------------------------
  free energy    TOTEN  =      -309.82969815 eV

  energy without entropy =     -309.85181793  energy(sigma->0) =     -309.83707141


--------------------------------------------------------------------------------------------------------




--------------------------------------- Iteration      1(   3)  ---------------------------------------


     EDDAV:  cpu time      1.3861: real time      1.4000
       DOS:  cpu time      0.0016: real time      0.0016
    --------------------------------------------
      LOOP:  cpu time      1.3878: real time      1.4016

 eigenvalue-minimisations  :  3136
 total energy-change (2. order) :-0.6344926E+02  (-0.6230360E+02)
 number of electron     256.0000000 magnetization 
 augmentation part      256.0000000 magnetization 

 Free energy of the ion-electron system (eV)
  ---------------------------------------------------
  alpha Z        PSCENC =       108.97757275
  Ewald energy   TEWEN  =     -7343.90943618
  -Hartree energ DENC   =      -346.18882526
  -exchange      EXHF   =         0.00000000
  -V(xc)+E(xc)   XCENC  =      -557.12339758
  PAW double counting   =      5598.62625415    -4492.17844134
  entropy T*S    EENTRO =         0.00774089
  eigenvalues    EBANDS =        93.71371321
  atomic energy  EATOM  =      6564.79586099
  Solvation  Ediel_sol  =         0.00000000
  ---------------------------------------------------
  free energy    TOTEN  =      -373.27895836 eV

  energy without entropy =     -373.28669925  energy(sigma->0) =     -373.28153866


--------------------------------------------------------------------------------------------------------




--------------------------------------- Iteration      1(   4)  ---------------------------------------


     EDDAV:  cpu time      1.3568: real time      1.3727
       DOS:  cpu time      0.0016: real time      0.0016
    --------------------------------------------
      LOOP:  cpu time      1.3584: real time      1.3743

 eigenvalue-minimisations  :  3112
 total energy-change (2. order) :-0.1635718E+01  (-0.1623789E+01)
 number of electron     256.0000000 magnetization 
 augmentation part      256.0000000 magnetization 

 Free energy of the ion-electron system (eV)
  ---------------------------------------------------
  alpha Z        PSCENC =       108.97757275
  Ewald energy   TEWEN  =     -7343.90943618
  -Hartree energ DENC   =      -346.18882526
  -exchange      EXHF   =         0.00000000
  -V(xc)+E(xc)   XCENC  =      -557.12339758
  PAW double counting   =      5598.62625415    -4492.17844134
  entropy T*S    EENTRO =         0.00847988
  eigenvalues    EBANDS =        92.07725641
  atomic energy  EATOM  =      6564.79586099
  Solvation  Ediel_sol  =         0.00000000
  ---------------------------------------------------
  free energy    TOTEN  =      -374.91467618 eV

  energy without entropy =     -374.92315606  energy(sigma->0) =     -374.91750281


--------------------------------------------------------------------------------------------------------




--------------------------------------- Iteration      1(   5)  ---------------------------------------


     EDDAV:  cpu time      1.3431: real time      1.3613
       DOS:  cpu time      0.0013: real time      0.0013
    CHARGE:  cpu time      0.2582: real time      0.2614
    MIXING:  cpu time      0.0103: real time      0.0127
    --------------------------------------------
      LOOP:  cpu time      1.6130: real time      1.6368

 eigenvalue-minimisations  :  3054
 total energy-change (2. order) :-0.5541056E-01  (-0.5529047E-01)
 number of electron     255.9999999 magnetization 
 augmentation part      -14.9950978 magnetization 

 Broyden mixing:
  rms(total) = 0.28590E+01    rms(broyden)= 0.28590E+01
  rms(prec ) = 0.31524E+01
  weight for this iteration     100.00

 Free energy of the ion-electron system (eV)
  ---------------------------------------------------
  alpha Z        PSCENC =       108.97757275
  Ewald energy   TEWEN  =     -7343.90943618
  -Hartree energ DENC   =      -346.18882526
  -exchange      EXHF   =         0.00000000
  -V(xc)+E(xc)   XCENC  =      -557.12339758
  PAW double counting   =      5598.62625415    -4492.17844134
  entropy T*S    EENTRO =         0.00842691
  eigenvalues    EBANDS =        92.02189882
  atomic energy  EATOM  =      6564.79586099
  Solvation  Ediel_sol  =         0.00000000
  ---------------------------------------------------
  free energy    TOTEN  =      -374.97008673 eV

  energy without entropy =     -374.97851364  energy(sigma->0) =     -374.97289570


--------------------------------------------------------------------------------------------------------




--------------------------------------- Iteration      1(   6)  ---------------------------------------


    POTLOK:  cpu time      0.1094: real time      0.1234
    SETDIJ:  cpu time      0.0791: real time      0.0793
    EDDIAG:  cpu time      0.1400: real time      0.1428
  RMM-DIIS:  cpu time      0.7288: real time      0.7338
    ORTHCH:  cpu time      0.0205: real time      0.0206
       DOS:  cpu time      0.0019: real time      0.0019
    CHARGE:  cpu time      0.2465: real time      0.2471
    MIXING:  cpu time      0.0074: real time      0.0114
    --------------------------------------------
      LOOP:  cpu time      1.3338: real time      1.3604

 eigenvalue-minimisations  :  2592
 total energy-change (2. order) : 0.5164152E+01  (-0.2590604E+00)
 number of electron     255.9999999 magnetization 
 augmentation part      -14.8314186 magnetization 

 Broyden mixing:
  rms(total) = 0.17203E+01    rms(broyden)= 0.17203E+01
  rms(prec ) = 0.18880E+01
  weight for this iteration     100.00

 eigenvalues of (default mixing * dielectric matrix)
  average eigenvalue GAMMA=   2.5055
  2.5055

 Free energy of the ion-electron system (eV)
  ---------------------------------------------------
  alpha Z        PSCENC =       108.97757275
  Ewald energy   TEWEN  =     -7343.90943618
  -Hartree energ DENC   =      -392.99029334
  -exchange      EXHF   =         0.00000000
  -V(xc)+E(xc)   XCENC  =      -549.72585678
  PAW double counting   =     12499.26280056   -11396.20465223
  entropy T*S    EENTRO =         0.00900718
  eigenvalues    EBANDS =       139.97906194
  atomic energy  EATOM  =      6564.79586099
  Solvation  Ediel_sol  =         0.00000000
  ---------------------------------------------------
  free energy    TOTEN  =      -369.80593511 eV

  energy without entropy =     -369.81494229  energy(sigma->0) =     -369.80893750


--------------------------------------------------------------------------------------------------------




--------------------------------------- Iteration      1(   7)  ---------------------------------------


    POTLOK:  cpu time      0.0832: real time      0.0964
    SETDIJ:  cpu time      0.0665: real time      0.0667
    EDDIAG:  cpu time      0.1422: real time      0.1425
  RMM-DIIS:  cpu time      0.7304: real time      0.7324
    ORTHCH:  cpu time      0.0214: real time      0.0214
       DOS:  cpu time      0.0015: real time      0.0015
    CHARGE:  cpu time      0.2471: real time      0.2477
    MIXING:  cpu time      0.0061: real time      0.0074
    --------------------------------------------
      LOOP:  cpu time      1.2984: real time      1.3160

 eigenvalue-minimisations  :  2642
 total energy-change (2. order) : 0.2350008E+01  (-0.6633052E+00)
 number of electron     255.9999999 magnetization 
 augmentation part      -14.6017068 magnetization 

 Broyden mixing:
  rms(total) = 0.96967E-01    rms(broyden)= 0.96966E-01
  rms(prec ) = 0.12203E+00
  weight for this iteration     100.00

 eigenvalues of (default mixing * dielectric matrix)
  average eigenvalue GAMMA=   2.2699
  2.2699  2.2699

 Free energy of the ion-electron system (eV)
  ---------------------------------------------------
  alpha Z        PSCENC =       108.97757275
  Ewald energy   TEWEN  =     -7343.90943618
  -Hartree energ DENC   =      -470.34028790
  -exchange      EXHF   =         0.00000000
  -V(xc)+E(xc)   XCENC  =      -536.93092423
  PAW double counting   =     29060.21285153   -27961.84404771
  entropy T*S    EENTRO =         0.03170240
  eigenvalues    EBANDS =       211.55078138
  atomic energy  EATOM  =      6564.79586099
  Solvation  Ediel_sol  =         0.00000000
  ---------------------------------------------------
  free energy    TOTEN  =      -367.45592697 eV

  energy without entropy =     -367.48762937  energy(sigma->0) =     -367.46649443


--------------------------------------------------------------------------------------------------------




--------------------------------------- Iteration      1(   8)  ---------------------------------------


    POTLOK:  cpu time      0.0844: real time      0.0966
    SETDIJ:  cpu time      0.0668: real time      0.0670
    EDDIAG:  cpu time      0.1344: real time      0.1347
  RMM-DIIS:  cpu time      0.7294: real time      0.7344
    ORTHCH:  cpu time      0.0207: real time      0.0208
       DOS:  cpu time      0.0017: real time      0.0017
    CHARGE:  cpu time      0.2446: real time      0.2451
    MIXING:  cpu time      0.0064: real time      0.0070
    --------------------------------------------
      LOOP:  cpu time      1.2885: real time      1.3074

 eigenvalue-minimisations  :  2621
 total energy-change (2. order) :-0.4314248E-01  (-0.6368295E-01)
 number of electron     255.9999999 magnetization 
 augmentation part      -14.6531175 magnetization 

 Broyden mixing:
  rms(total) = 0.49709E-01    rms(broyden)= 0.49709E-01
  rms(prec ) = 0.53071E-01
  weight for this iteration     100.00

 eigenvalues of (default mixing * dielectric matrix)
  average eigenvalue GAMMA=   2.1456
  2.5522  1.9423  1.9423

 Free energy of the ion-electron system (eV)
  ---------------------------------------------------
  alpha Z        PSCENC =       108.97757275
  Ewald energy   TEWEN  =     -7343.90943618
  -Hartree energ DENC   =      -463.06066663
  -exchange      EXHF   =         0.00000000
  -V(xc)+E(xc)   XCENC  =      -537.52127297
  PAW double counting   =     28702.60579424   -27603.33843713
  entropy T*S    EENTRO =         0.02886872
  eigenvalues    EBANDS =       203.92264676
  atomic energy  EATOM  =      6564.79586099
  Solvation  Ediel_sol  =         0.00000000
  ---------------------------------------------------
  free energy    TOTEN  =      -367.49906945 eV

  energy without entropy =     -367.52793817  energy(sigma->0) =     -367.50869235


--------------------------------------------------------------------------------------------------------




--------------------------------------- Iteration      1(   9)  ---------------------------------------


    POTLOK:  cpu time      0.0856: real time      0.0988
    SETDIJ:  cpu time      0.0666: real time      0.0668
    EDDIAG:  cpu time      0.1338: real time      0.1342
  RMM-DIIS:  cpu time      0.7443: real time      0.7463
    ORTHCH:  cpu time      0.0213: real time      0.0213
       DOS:  cpu time      0.0013: real time      0.0013
    CHARGE:  cpu time      0.2453: real time      0.2459
    MIXING:  cpu time      0.0064: real time      0.0064
    --------------------------------------------
      LOOP:  cpu time      1.3047: real time      1.3210

 eigenvalue-minimisations  :  2668
 total energy-change (2. order) :-0.1993343E-01  (-0.1850073E-01)
 number of electron     255.9999999 magnetization 
 augmentation part      -14.6424784 magnetization 

 Broyden mixing:
  rms(total) = 0.57379E-01    rms(broyden)= 0.57379E-01
  rms(prec ) = 0.64188E-01
  weight for this iteration     100.00

 eigenvalues of (default mixing * dielectric matrix)
  average eigenvalue GAMMA=   1.8893
  2.5444  2.3351  2.3351  0.3424

 Free energy of the ion-electron system (eV)
  ---------------------------------------------------
  alpha Z        PSCENC =       108.97757275
  Ewald energy   TEWEN  =     -7343.90943618
  -Hartree energ DENC   =      -465.73084052
  -exchange      EXHF   =         0.00000000
  -V(xc)+E(xc)   XCENC  =      -537.15328750
  PAW double counting   =     29038.99396457   -27939.94134488
  entropy T*S    EENTRO =         0.02953705
  eigenvalues    EBANDS =       206.41897084
  atomic energy  EATOM  =      6564.79586099
  Solvation  Ediel_sol  =         0.00000000
  ---------------------------------------------------
  free energy    TOTEN  =      -367.51900288 eV

  energy without entropy =     -367.54853993  energy(sigma->0) =     -367.52884857


--------------------------------------------------------------------------------------------------------




--------------------------------------- Iteration      1(  10)  ---------------------------------------


    POTLOK:  cpu time      0.0825: real time      0.0985
    SETDIJ:  cpu time      0.0647: real time      0.0649
    EDDIAG:  cpu time      0.1333: real time      0.1336
  RMM-DIIS:  cpu time      0.7558: real time      0.7578
    ORTHCH:  cpu time      0.0207: real time      0.0207
       DOS:  cpu time      0.0024: real time      0.0024
    CHARGE:  cpu time      0.2452: real time      0.2458
    MIXING:  cpu time      0.0064: real time      0.0064
    --------------------------------------------
      LOOP:  cpu time      1.3109: real time      1.3301

 eigenvalue-minimisations  :  2739
 total energy-change (2. order) :-0.3375472E-02  (-0.3208536E-02)
 number of electron     255.9999999 magnetization 
 augmentation part      -14.6489505 magnetization 

 Broyden mixing:
  rms(total) = 0.73868E-01    rms(broyden)= 0.73868E-01
  rms(prec ) = 0.79878E-01
  weight for this iteration     100.00

 eigenvalues of (default mixing * dielectric matrix)
  average eigenvalue GAMMA=   1.5310
  2.6578  2.0606  2.0606  0.4379  0.4379

 Free energy of the ion-electron system (eV)
  ---------------------------------------------------
  alpha Z        PSCENC =       108.97757275
  Ewald energy   TEWEN  =     -7343.90943618
  -Hartree energ DENC   =      -465.80290948
  -exchange      EXHF   =         0.00000000
  -V(xc)+E(xc)   XCENC  =      -537.14486310
  PAW double counting   =     29056.23407589   -27957.18443643
  entropy T*S    EENTRO =         0.02956767
  eigenvalues    EBANDS =       206.48218953
  atomic energy  EATOM  =      6564.79586099
  Solvation  Ediel_sol  =         0.00000000
  ---------------------------------------------------
  free energy    TOTEN  =      -367.52237835 eV

  energy without entropy =     -367.55194602  energy(sigma->0) =     -367.53223424


--------------------------------------------------------------------------------------------------------




--------------------------------------- Iteration      1(  11)  ---------------------------------------


    POTLOK:  cpu time      0.0804: real time      0.0985
    SETDIJ:  cpu time      0.0679: real time      0.0682
    EDDIAG:  cpu time      0.1330: real time      0.1334
  RMM-DIIS:  cpu time      0.7219: real time      0.7239
    ORTHCH:  cpu time      0.0208: real time      0.0208
       DOS:  cpu time      0.0025: real time      0.0025
    CHARGE:  cpu time      0.2453: real time      0.2459
    MIXING:  cpu time      0.0063: real time      0.0063
    --------------------------------------------
      LOOP:  cpu time      1.2781: real time      1.2995

 eigenvalue-minimisations  :  2592
 total energy-change (2. order) : 0.2383492E-02  (-0.1061080E-02)
 number of electron     255.9999999 magnetization 
 augmentation part      -14.6620337 magnetization 

 Broyden mixing:
  rms(total) = 0.70196E-01    rms(broyden)= 0.70196E-01
  rms(prec ) = 0.70859E-01
  weight for this iteration     100.00

 eigenvalues of (default mixing * dielectric matrix)
  average eigenvalue GAMMA=   1.3887
  2.5282  2.5282  1.4416  0.7865  0.7865  0.2612

 Free energy of the ion-electron system (eV)
  ---------------------------------------------------
  alpha Z        PSCENC =       108.97757275
  Ewald energy   TEWEN  =     -7343.90943618
  -Hartree energ DENC   =      -463.61675204
  -exchange      EXHF   =         0.00000000
  -V(xc)+E(xc)   XCENC  =      -537.28800111
  PAW double counting   =     29021.81580203   -27922.52733968
  entropy T*S    EENTRO =         0.02859659
  eigenvalues    EBANDS =       204.20370179
  atomic energy  EATOM  =      6564.79586099
  Solvation  Ediel_sol  =         0.00000000
  ---------------------------------------------------
  free energy    TOTEN  =      -367.51999486 eV

  energy without entropy =     -367.54859146  energy(sigma->0) =     -367.52952706


--------------------------------------------------------------------------------------------------------




--------------------------------------- Iteration      1(  12)  ---------------------------------------


    POTLOK:  cpu time      0.0827: real time      0.0969
    SETDIJ:  cpu time      0.0651: real time      0.0653
    EDDIAG:  cpu time      0.1333: real time      0.1336
  RMM-DIIS:  cpu time      0.7148: real time      0.7168
    ORTHCH:  cpu time      0.0207: real time      0.0208
       DOS:  cpu time      0.0019: real time      0.0019
    CHARGE:  cpu time      0.2453: real time      0.2459
    MIXING:  cpu time      0.0061: real time      0.0061
    --------------------------------------------
      LOOP:  cpu time      1.2700: real time      1.2873

 eigenvalue-minimisations  :  2601
 total energy-change (2. order) :-0.7831370E-04  (-0.1712640E-03)
 number of electron     255.9999999 magnetization 
 augmentation part      -14.6657254 magnetization 

 Broyden mixing:
  rms(total) = 0.72113E-01    rms(broyden)= 0.72113E-01
  rms(prec ) = 0.72567E-01
  weight for this iteration     100.00

 eigenvalues of (default mixing * dielectric matrix)
  average eigenvalue GAMMA=   1.2155
  2.5254  2.5254  1.4292  0.7516  0.7516  0.2628  0.2628

 Free energy of the ion-electron system (eV)
  ---------------------------------------------------
  alpha Z        PSCENC =       108.97757275
  Ewald energy   TEWEN  =     -7343.90943618
  -Hartree energ DENC   =      -463.36830549
  -exchange      EXHF   =         0.00000000
  -V(xc)+E(xc)   XCENC  =      -537.32600801
  PAW double counting   =     28945.98724894   -27846.70560528
  entropy T*S    EENTRO =         0.02854469
  eigenvalues    EBANDS =       204.00005441
  atomic energy  EATOM  =      6564.79586099
  Solvation  Ediel_sol  =         0.00000000
  ---------------------------------------------------
  free energy    TOTEN  =      -367.52007318 eV

  energy without entropy =     -367.54861787  energy(sigma->0) =     -367.52958807


--------------------------------------------------------------------------------------------------------




--------------------------------------- Iteration      1(  13)  ---------------------------------------


    POTLOK:  cpu time      0.0816: real time      0.0928
    SETDIJ:  cpu time      0.0694: real time      0.0695
    EDDIAG:  cpu time      0.1318: real time      0.1321
  RMM-DIIS:  cpu time      0.7639: real time      0.7660
    ORTHCH:  cpu time      0.0209: real time      0.0210
       DOS:  cpu time      0.0017: real time      0.0017
    CHARGE:  cpu time      0.2458: real time      0.2464
    MIXING:  cpu time      0.0060: real time      0.0060
    --------------------------------------------
      LOOP:  cpu time      1.3211: real time      1.3355

 eigenvalue-minimisations  :  2771
 total energy-change (2. order) :-0.4292411E-04  (-0.3182689E-04)
 number of electron     255.9999999 magnetization 
 augmentation part      -14.6661340 magnetization 

 Broyden mixing:
  rms(total) = 0.76285E-01    rms(broyden)= 0.76285E-01
  rms(prec ) = 0.76728E-01
  weight for this iteration     100.00

 eigenvalues of (default mixing * dielectric matrix)
  average eigenvalue GAMMA=   1.5220
  2.6624  2.6624  2.4771  1.6820  0.9990  0.6884  0.6884  0.3160

 Free energy of the ion-electron system (eV)
  ---------------------------------------------------
  alpha Z        PSCENC =       108.97757275
  Ewald energy   TEWEN  =     -7343.90943618
  -Hartree energ DENC   =      -463.39031938
  -exchange      EXHF   =         0.00000000
  -V(xc)+E(xc)   XCENC  =      -537.32224883
  PAW double counting   =     28963.16738078   -27863.88514427
  entropy T*S    EENTRO =         0.02854791
  eigenvalues    EBANDS =       204.01767012
  atomic energy  EATOM  =      6564.79586099
  Solvation  Ediel_sol  =         0.00000000
  ---------------------------------------------------
  free energy    TOTEN  =      -367.52011610 eV

  energy without entropy =     -367.54866401  energy(sigma->0) =     -367.52963207


--------------------------------------------------------------------------------------------------------




--------------------------------------- Iteration      1(  14)  ---------------------------------------


    POTLOK:  cpu time      0.0813: real time      0.0981
    SETDIJ:  cpu time      0.0671: real time      0.0672
    EDDIAG:  cpu time      0.1331: real time      0.1337
  RMM-DIIS:  cpu time      0.7209: real time      0.7227
    ORTHCH:  cpu time      0.0208: real time      0.0209
       DOS:  cpu time      0.0014: real time      0.0014
    CHARGE:  cpu time      0.2450: real time      0.2456
    MIXING:  cpu time      0.0067: real time      0.0067
    --------------------------------------------
      LOOP:  cpu time      1.2764: real time      1.2962

 eigenvalue-minimisations  :  2600
 total energy-change (2. order) : 0.5846131E-04  (-0.8533344E-05)
 number of electron     255.9999999 magnetization 
 augmentation part      -14.6665873 magnetization 

 Broyden mixing:
  rms(total) = 0.54513E-01    rms(broyden)= 0.54513E-01
  rms(prec ) = 0.54966E-01
  weight for this iteration     100.00

 eigenvalues of (default mixing * dielectric matrix)
  average eigenvalue GAMMA=   1.4163
  2.6061  2.5406  2.5406  1.5088  0.9343  0.9343  0.3224  0.7788  0.5811

 Free energy of the ion-electron system (eV)
  ---------------------------------------------------
  alpha Z        PSCENC =       108.97757275
  Ewald energy   TEWEN  =     -7343.90943618
  -Hartree energ DENC   =      -463.16972923
  -exchange      EXHF   =         0.00000000
  -V(xc)+E(xc)   XCENC  =      -537.35610924
  PAW double counting   =     28795.74058279   -27696.49219023
  entropy T*S    EENTRO =         0.02851992
  eigenvalues    EBANDS =       203.86487078
  atomic energy  EATOM  =      6564.79586099
  Solvation  Ediel_sol  =         0.00000000
  ---------------------------------------------------
  free energy    TOTEN  =      -367.52005764 eV

  energy without entropy =     -367.54857756  energy(sigma->0) =     -367.52956428


--------------------------------------------------------------------------------------------------------




--------------------------------------- Iteration      1(  15)  ---------------------------------------


    POTLOK:  cpu time      0.0829: real time      0.0972
    SETDIJ:  cpu time      0.0658: real time      0.0660
    EDDIAG:  cpu time      0.1338: real time      0.1343
  RMM-DIIS:  cpu time      0.7214: real time      0.7235
    ORTHCH:  cpu time      0.0218: real time      0.0218
       DOS:  cpu time      0.0018: real time      0.0018
    CHARGE:  cpu time      0.2473: real time      0.2479
    MIXING:  cpu time      0.0076: real time      0.0076
    --------------------------------------------
      LOOP:  cpu time      1.2824: real time      1.3001

 eigenvalue-minimisations  :  2593
 total energy-change (2. order) :-0.1351196E-03  (-0.6440180E-05)
 number of electron     255.9999999 magnetization 
 augmentation part      -14.6671810 magnetization 

 Broyden mixing:
  rms(total) = 0.47116E-01    rms(broyden)= 0.47116E-01
  rms(prec ) = 0.47482E-01
  weight for this iteration     100.00

 eigenvalues of (default mixing * dielectric matrix)
  average eigenvalue GAMMA=   1.3924
  2.6551  2.6551  2.4217  1.2122  1.2122  1.2480  0.8423  0.6791  0.6791  0.3190

 Free energy of the ion-electron system (eV)
  ---------------------------------------------------
  alpha Z        PSCENC =       108.97757275
  Ewald energy   TEWEN  =     -7343.90943618
  -Hartree energ DENC   =      -463.08502764
  -exchange      EXHF   =         0.00000000
  -V(xc)+E(xc)   XCENC  =      -537.36029198
  PAW double counting   =     28764.93447623   -27665.67718560
  entropy T*S    EENTRO =         0.02845703
  eigenvalues    EBANDS =       203.77538163
  atomic energy  EATOM  =      6564.79586099
  Solvation  Ediel_sol  =         0.00000000
  ---------------------------------------------------
  free energy    TOTEN  =      -367.52019276 eV

  energy without entropy =     -367.54864979  energy(sigma->0) =     -367.52967844


--------------------------------------------------------------------------------------------------------




--------------------------------------- Iteration      1(  16)  ---------------------------------------


    POTLOK:  cpu time      0.0834: real time      0.0984
    SETDIJ:  cpu time      0.0671: real time      0.0678
    EDDIAG:  cpu time      0.1383: real time      0.1388
  RMM-DIIS:  cpu time      0.7090: real time      0.7123
    ORTHCH:  cpu time      0.0213: real time      0.0213
       DOS:  cpu time      0.0022: real time      0.0022
    CHARGE:  cpu time      0.2455: real time      0.2466
    MIXING:  cpu time      0.0070: real time      0.0074
    --------------------------------------------
      LOOP:  cpu time      1.2737: real time      1.2948

 eigenvalue-minimisations  :  2592
 total energy-change (2. order) :-0.1011663E-03  (-0.2655634E-05)
 number of electron     255.9999999 magnetization 
 augmentation part      -14.6667810 magnetization 

 Broyden mixing:
  rms(total) = 0.33850E-01    rms(broyden)= 0.33850E-01
  rms(prec ) = 0.34076E-01
  weight for this iteration     100.00

 eigenvalues of (default mixing * dielectric matrix)
  average eigenvalue GAMMA=   1.2797
  2.6587  2.6587  2.4139  1.2953  1.1477  1.1477  0.8337  0.6869  0.6869  0.3173
  0.2297

 Free energy of the ion-electron system (eV)
  ---------------------------------------------------
  alpha Z        PSCENC =       108.97757275
  Ewald energy   TEWEN  =     -7343.90943618
  -Hartree energ DENC   =      -463.22170913
  -exchange      EXHF   =         0.00000000
  -V(xc)+E(xc)   XCENC  =      -537.35050999
  PAW double counting   =     28713.77058590   -27614.51547380
  entropy T*S    EENTRO =         0.02845475
  eigenvalues    EBANDS =       203.90436077
  atomic energy  EATOM  =      6564.79586099
  Solvation  Ediel_sol  =         0.00000000
  ---------------------------------------------------
  free energy    TOTEN  =      -367.52029392 eV

  energy without entropy =     -367.54874868  energy(sigma->0) =     -367.52977884


--------------------------------------------------------------------------------------------------------




--------------------------------------- Iteration      1(  17)  ---------------------------------------


    POTLOK:  cpu time      0.0821: real time      0.0986
    SETDIJ:  cpu time      0.0676: real time      0.0679
    EDDIAG:  cpu time      0.1336: real time      0.1341
  RMM-DIIS:  cpu time      0.7381: real time      0.7478
    ORTHCH:  cpu time      0.0208: real time      0.0210
       DOS:  cpu time      0.0020: real time      0.0020
    CHARGE:  cpu time      0.2447: real time      0.2458
    MIXING:  cpu time      0.0070: real time      0.0071
    --------------------------------------------
      LOOP:  cpu time      1.2959: real time      1.3243

 eigenvalue-minimisations  :  2592
 total energy-change (2. order) :-0.5949800E-04  (-0.2898459E-05)
 number of electron     255.9999999 magnetization 
 augmentation part      -14.6661550 magnetization 

 Broyden mixing:
  rms(total) = 0.15432E-01    rms(broyden)= 0.15432E-01
  rms(prec ) = 0.15530E-01
  weight for this iteration     100.00

 eigenvalues of (default mixing * dielectric matrix)
  average eigenvalue GAMMA=   1.5991
  2.4817  2.4817  2.6360  2.6360  2.5000  1.6805  1.0824  1.0824  0.9004  0.6944
  0.6944  0.3196

 Free energy of the ion-electron system (eV)
  ---------------------------------------------------
  alpha Z        PSCENC =       108.97757275
  Ewald energy   TEWEN  =     -7343.90943618
  -Hartree energ DENC   =      -463.34394167
  -exchange      EXHF   =         0.00000000
  -V(xc)+E(xc)   XCENC  =      -537.34681595
  PAW double counting   =     28623.93627205   -27524.68409998
  entropy T*S    EENTRO =         0.02844992
  eigenvalues    EBANDS =       204.02578465
  atomic energy  EATOM  =      6564.79586099
  Solvation  Ediel_sol  =         0.00000000
  ---------------------------------------------------
  free energy    TOTEN  =      -367.52035342 eV

  energy without entropy =     -367.54880334  energy(sigma->0) =     -367.52983673


--------------------------------------------------------------------------------------------------------




--------------------------------------- Iteration      1(  18)  ---------------------------------------


    POTLOK:  cpu time      0.0781: real time      0.0942
    SETDIJ:  cpu time      0.0734: real time      0.0738
    EDDIAG:  cpu time      0.1319: real time      0.1325
  RMM-DIIS:  cpu time      0.7215: real time      0.7249
    ORTHCH:  cpu time      0.0204: real time      0.0207
       DOS:  cpu time      0.0021: real time      0.0021
    CHARGE:  cpu time      0.2437: real time      0.2450
    MIXING:  cpu time      0.0075: real time      0.0076
    --------------------------------------------
      LOOP:  cpu time      1.2787: real time      1.3008

 eigenvalue-minimisations  :  2592
 total energy-change (2. order) :-0.1384801E-04  (-0.9806824E-06)
 number of electron     255.9999999 magnetization 
 augmentation part      -14.6657749 magnetization 

 Broyden mixing:
  rms(total) = 0.45638E-02    rms(broyden)= 0.45638E-02
  rms(prec ) = 0.46093E-02
  weight for this iteration     100.00

 eigenvalues of (default mixing * dielectric matrix)
  average eigenvalue GAMMA=   1.5220
  2.2260  2.2260  2.6548  2.6548  2.4863  1.8350  0.9819  1.0523  1.0523  0.9049
  0.6957  0.6957  0.3196

 Free energy of the ion-electron system (eV)
  ---------------------------------------------------
  alpha Z        PSCENC =       108.97757275
  Ewald energy   TEWEN  =     -7343.90943618
  -Hartree energ DENC   =      -463.38944903
  -exchange      EXHF   =         0.00000000
  -V(xc)+E(xc)   XCENC  =      -537.34795484
  PAW double counting   =     28564.22946666   -27464.97863037
  entropy T*S    EENTRO =         0.02844391
  eigenvalues    EBANDS =       204.07375884
  atomic energy  EATOM  =      6564.79586099
  Solvation  Ediel_sol  =         0.00000000
  ---------------------------------------------------
  free energy    TOTEN  =      -367.52036727 eV

  energy without entropy =     -367.54881118  energy(sigma->0) =     -367.52984857


--------------------------------------------------------------------------------------------------------




--------------------------------------- Iteration      1(  19)  ---------------------------------------


    POTLOK:  cpu time      0.0848: real time      0.0984
    SETDIJ:  cpu time      0.0677: real time      0.0681
    EDDIAG:  cpu time      0.1351: real time      0.1357
  RMM-DIIS:  cpu time      0.5039: real time      0.5061
    ORTHCH:  cpu time      0.0210: real time      0.0211
       DOS:  cpu time      0.0014: real time      0.0014
    CHARGE:  cpu time      0.2424: real time      0.2512
    MIXING:  cpu time      0.0056: real time      0.0056
    --------------------------------------------
      LOOP:  cpu time      1.0619: real time      1.0875

 eigenvalue-minimisations  :  1732
 total energy-change (2. order) :-0.2833953E-05  (-0.2578814E-06)
 number of electron     255.9999999 magnetization 
 augmentation part      -14.6655657 magnetization 

 Broyden mixing:
  rms(total) = 0.83572E-03    rms(broyden)= 0.83572E-03
  rms(prec ) = 0.85960E-03
  weight for this iteration     100.00

 eigenvalues of (default mixing * dielectric matrix)
  average eigenvalue GAMMA=   1.6880
  3.5352  3.5352  2.6861  2.6861  2.4376  1.8711  1.1280  1.1280  0.9680  0.9706
  0.9706  0.6982  0.6982  0.3196

 Free energy of the ion-electron system (eV)
  ---------------------------------------------------
  alpha Z        PSCENC =       108.97757275
  Ewald energy   TEWEN  =     -7343.90943618
  -Hartree energ DENC   =      -463.41490881
  -exchange      EXHF   =         0.00000000
  -V(xc)+E(xc)   XCENC  =      -537.34785189
  PAW double counting   =     28538.39607370   -27439.14608927
  entropy T*S    EENTRO =         0.02844267
  eigenvalues    EBANDS =       204.09996594
  atomic energy  EATOM  =      6564.79586099
  Solvation  Ediel_sol  =         0.00000000
  ---------------------------------------------------
  free energy    TOTEN  =      -367.52037010 eV

  energy without entropy =     -367.54881277  energy(sigma->0) =     -367.52985099


--------------------------------------------------------------------------------------------------------




--------------------------------------- Iteration      1(  20)  ---------------------------------------


    POTLOK:  cpu time      0.0805: real time      0.1004
    SETDIJ:  cpu time      0.0659: real time      0.0663
    EDDIAG:  cpu time      0.1323: real time      0.1328
  RMM-DIIS:  cpu time      0.4634: real time      0.4680
    ORTHCH:  cpu time      0.0209: real time      0.0209
       DOS:  cpu time      0.0018: real time      0.0018
    --------------------------------------------
      LOOP:  cpu time      0.7647: real time      0.7901

 eigenvalue-minimisations  :  1563
 total energy-change (2. order) :-0.4456006E-06  (-0.6511699E-07)
 number of electron     255.9999999 magnetization 
 augmentation part      -14.6655657 magnetization 

 Free energy of the ion-electron system (eV)
  ---------------------------------------------------
  alpha Z        PSCENC =       108.97757275
  Ewald energy   TEWEN  =     -7343.90943618
  -Hartree energ DENC   =      -463.42917554
  -exchange      EXHF   =         0.00000000
  -V(xc)+E(xc)   XCENC  =      -537.34673761
  PAW double counting   =     28534.52251826   -27435.27261441
  entropy T*S    EENTRO =         0.02844207
  eigenvalues    EBANDS =       204.11319911
  atomic energy  EATOM  =      6564.79586099
  Solvation  Ediel_sol  =         0.00000000
  ---------------------------------------------------
  free energy    TOTEN  =      -367.52037055 eV

  energy without entropy =     -367.54881263  energy(sigma->0) =     -367.52985124


--------------------------------------------------------------------------------------------------------




 average (electrostatic) potential at core
  the test charge radii are     0.9892
  (the norm of the test charge is              1.0000)
       1 -82.8899       2 -82.8899       3 -82.8899       4 -82.8899       5 -82.8899
       6 -82.8899       7 -82.8899       8 -82.8899       9 -82.8899      10 -82.8899
      11 -82.8899      12 -82.8899      13 -82.8899      14 -82.8899      15 -82.8899
      16 -82.8899      17 -82.8899      18 -82.8899      19 -82.8899      20 -82.8899
      21 -82.8899      22 -82.8899      23 -82.8899      24 -82.8899      25 -82.8899
      26 -82.8899      27 -82.8899      28 -82.8899      29 -82.8899      30 -82.8899
      31 -82.8899      32 -82.8899      33 -82.8899      34 -82.8899      35 -82.8899
      36 -82.8899      37 -82.8899      38 -82.8899      39 -82.8899      40 -82.8899
      41 -82.8899      42 -82.8899      43 -82.8899      44 -82.8899      45 -82.8899
      46 -82.8899      47 -82.8899      48 -82.8899      49 -82.8899      50 -82.8899
      51 -82.8899      52 -82.8899      53 -82.8899      54 -82.8899      55 -82.8899
      56 -82.8899      57 -82.8899      58 -82.8899      59 -82.8899      60 -82.8899
      61 -82.8899      62 -82.8899      63 -82.8899      64 -82.8899
 
 
 
 E-fermi :   6.2475     XC(G=0):  -9.6009     alpha+bet :-12.1320

 val. band max:        5.9464037674   @ k =   0.0000   0.0000   0.0000
 cond. band min:       6.3727652945   @ k =   0.5000  -0.0000   0.0000
 fundamental gap:      0.4263615271
 Fermi energy:         6.2475403724

 k-point     1 :       0.0000    0.0000    0.0000
  band No.  band energies     occupation 
      1      -6.1576      2.00000
      2      -5.0627      2.00000
      3      -5.0627      2.00000
      4      -5.0627      2.00000
      5      -5.0627      2.00000
      6      -5.0533      2.00000
      7      -5.0533      2.00000
      8      -4.0917      2.00000
      9      -4.0917      2.00000
     10      -4.0835      2.00000
     11      -4.0835      2.00000
     12      -4.0834      2.00000
     13      -4.0834      2.00000
     14      -4.0768      2.00000
     15      -4.0768      2.00000
     16      -4.0768      2.00000
     17      -4.0768      2.00000
     18      -4.0619      2.00000
     19      -4.0619      2.00000
     20      -3.7922      2.00000
     21      -3.7922      2.00000
     22      -3.7581      2.00000
     23      -3.7581      2.00000
     24      -1.9809      2.00000
     25      -1.9602      2.00000
     26      -1.9602      2.00000
     27      -1.9398      2.00000
     28      -1.9298      2.00000
     29      -1.9298      2.00000
     30      -1.8039      2.00000
     31      -1.8039      2.00000
     32      -1.7935      2.00000
     33      -1.7935      2.00000
     34      -1.7706      2.00000
     35      -1.7706      2.00000
     36      -1.7706      2.00000
     37      -1.7706      2.00000
     38      -1.7580      2.00000
     39      -1.7580      2.00000
     40      -1.7477      2.00000
     41      -1.7477      2.00000
     42      -1.1588      2.00000
     43      -1.1588      2.00000
     44      -1.1514      2.00000
     45      -1.1514      2.00000
     46       0.3889      2.00000
     47       0.3889      2.00000
     48       0.3983      2.00000
     49       0.3983      2.00000
     50       0.3983      2.00000
     51       0.3983      2.00000
     52       0.4076      2.00000
     53       0.4076      2.00000
     54       0.4164      2.00000
     55       0.4164      2.00000
     56       0.4164      2.00000
     57       0.4164      2.00000
     58       1.9558      2.00000
     59       1.9558      2.00000
     60       1.9565      2.00000
     61       1.9565      2.00000
     62       1.9585      2.00000
     63       1.9585      2.00000
     64       1.9590      2.00000
     65       1.9590      2.00000
     66       1.9590      2.00000
     67       1.9590      2.00000
     68       1.9593      2.00000
     69       1.9593      2.00000
     70       2.0512      2.00000
     71       2.0512      2.00000
     72       2.0568      2.00000
     73       2.0568      2.00000
     74       2.0568      2.00000
     75       2.0568      2.00000
     76       2.0622      2.00000
     77       2.0622      2.00000
     78       2.0849      2.00000
     79       2.0849      2.00000
     80       2.0849      2.00000
     81       2.0849      2.00000
     82       2.3918      2.00000
     83       2.3918      2.00000
     84       2.3921      2.00000
     85       2.3921      2.00000
     86       2.4279      2.00000
     87       2.4279      2.00000
     88       2.9872      2.00000
     89       2.9872      2.00000
     90       2.9987      2.00000
     91       3.0260      2.00000
     92       3.0260      2.00000
     93       3.0535      2.00000
     94       3.9686      2.00000
     95       3.9686      2.00000
     96       3.9686      2.00000
     97       3.9686      2.00000
     98       3.9744      2.00000
     99       3.9744      2.00000
    100       3.9932      2.00000
    101       3.9932      2.00000
    102       4.0044      2.00000
    103       4.0044      2.00000
    104       4.0235      2.00000
    105       4.0235      2.00000
    106       4.5433      2.00000
    107       4.5433      2.00000
    108       4.5433      2.00000
    109       4.5433      2.00000
    110       4.5707      2.00000
    111       4.5707      2.00000
    112       4.5834      2.00000
    113       4.5834      2.00000
    114       4.5835      2.00000
    115       4.5835      2.00000
    116       4.5964      2.00000
    117       4.5964      2.00000
    118       4.6697      2.00000
    119       4.6697      2.00000
    120       4.6951      2.00000
    121       4.6951      2.00000
    122       4.7191      2.00000
    123       4.7191      2.00000
    124       4.7426      2.00000
    125       4.7426      2.00000
    126       5.9087      2.03760
    127       5.9096      2.03801
    128       5.9464      2.05479
    129       6.4575     -0.05913
    130       6.4575     -0.05913
    131       6.4686     -0.06579
    132       6.4978     -0.07071
    133       6.4978     -0.07071
    134       6.5271     -0.06372
    135       6.9155     -0.00002
    136       6.9155     -0.00002
    137       6.9556     -0.00001
    138       6.9556     -0.00001
    139       6.9557     -0.00001
    140       6.9557     -0.00001
    141       7.4067     -0.00000
    142       7.4067     -0.00000
    143       7.4534     -0.00000
    144       7.4534     -0.00000
    145       8.2610     -0.00000
    146       8.2612     -0.00000
    147       8.2616     -0.00000
    148       8.2623     -0.00000
    149       8.2911     -0.00000
    150       8.2921     -0.00000
    151       8.3080     -0.00000
    152       8.3080     -0.00000
    153       8.3083     -0.00000
    154       8.3097     -0.00000
    155       8.3261     -0.00000
    156       8.3283     -0.00000
    157       8.4009     -0.00000
    158       8.4493     -0.00000
    159       8.4878     -0.00000
    160       8.9561     -0.00000
    161       8.9880     -0.00000
    162       9.1047     -0.00000

 k-point     2 :       0.5000   -0.0000    0.0000
  band No.  band energies     occupation 
      1      -5.8790      2.00000
      2      -5.8790      2.00000
      3      -4.8165      2.00000
      4      -4.8165      2.00000
      5      -4.8091      2.00000
      6      -4.8091      2.00000
      7      -4.8091      2.00000
      8      -4.8091      2.00000
      9      -4.8016      2.00000
     10      -4.8016      2.00000
     11      -3.9557      2.00000
     12      -3.9557      2.00000
     13      -3.9557      2.00000
     14      -3.9557      2.00000
     15      -3.9351      2.00000
     16      -3.9351      2.00000
     17      -3.9351      2.00000
     18      -3.9351      2.00000
     19      -3.7139      2.00000
     20      -3.7139      2.00000
     21      -2.9993      2.00000
     22      -2.9993      2.00000
     23      -2.9779      2.00000
     24      -2.9779      2.00000
     25      -2.9779      2.00000
     26      -2.9779      2.00000
     27      -2.9564      2.00000
     28      -2.9564      2.00000
     29      -1.8975      2.00000
     30      -1.8975      2.00000
     31      -1.8897      2.00000
     32      -1.8897      2.00000
     33      -1.8609      2.00000
     34      -1.8609      2.00000
     35      -1.8533      2.00000
     36      -1.8533      2.00000
     37      -0.7072      2.00000
     38      -0.7072      2.00000
     39      -0.6908      2.00000
     40      -0.6908      2.00000
     41      -0.6908      2.00000
     42      -0.6908      2.00000
[...]
  0.000   0.000   4.175   0.000   0.000   7.778   0.000   0.000
 -0.000  -0.000   0.000   4.175   0.000   0.000   7.778   0.000
  0.000   0.000   0.000   0.000   4.175   0.000   0.000   7.778
  0.000   0.000   7.778   0.000   0.000  14.501   0.000  -0.000
 -0.001  -0.001   0.000   7.778   0.000   0.000  14.501   0.000
  0.000   0.000   0.000   0.000   7.778  -0.000   0.000  14.502
 total augmentation occupancy for first ion, spin component:           1
  6.026  -2.333   0.000   0.014   0.000   0.000  -0.005   0.000
 -2.333   1.013   0.000  -0.007   0.000   0.000   0.002   0.000
  0.000   0.000   2.985   0.000   0.003  -0.671   0.000  -0.000
  0.014  -0.007   0.000   2.985   0.000   0.000  -0.671   0.000
  0.000   0.000   0.003   0.000   2.976  -0.000   0.000  -0.667
  0.000   0.000  -0.671   0.000  -0.000   0.160   0.000  -0.000
 -0.005   0.002   0.000  -0.671   0.000   0.000   0.160   0.000
  0.000   0.000  -0.000   0.000  -0.667  -0.000   0.000   0.158


------------------------ aborting loop because EDIFF is reached ----------------------------------------


    CHARGE:  cpu time      0.2507: real time      0.2511
    FORLOC:  cpu time      0.0222: real time      0.0223
    FORNL :  cpu time      0.6687: real time      0.6699
    STRESS:  cpu time      2.0208: real time      2.0258
    FORCOR:  cpu time      0.0904: real time      0.0906
    FORHAR:  cpu time      0.0364: real time      0.0365
    MIXING:  cpu time      0.0451: real time      0.0452
    OFIELD:  cpu time      0.0001: real time      0.0001

  FORCE on cell =-STRESS in cart. coord.  units (eV):
  Direction    XX          YY          ZZ          XY          YZ          ZX
  --------------------------------------------------------------------------------------
  Alpha Z   108.97757   108.97757   108.97757
  Ewald   -2459.25708 -2442.37674 -2442.36249     4.26079    -0.00000    -0.00000
  Hartree   152.58380   155.41864   155.40446     2.29534    -0.00000    -0.00000
  E(xc)    -820.06109  -820.19877  -820.20044    -0.03938     0.00000    -0.00000
  Local    -910.75636  -931.05578  -931.06622    -7.10331    -0.00000    -0.00000
  n-local  2490.03105  2492.32757  2492.35899     0.39526    -0.00000     0.00000
  augment  -368.56530  -368.54595  -368.54555    -0.19950     0.00000     0.00000
  Kinetic  1821.22924  1816.24965  1816.19087     3.35868     0.00000    -0.00000
  Fock        0.00000     0.00000     0.00000     0.00000     0.00000     0.00000
  -------------------------------------------------------------------------------------
  Total      14.18184    10.79619    10.75721     2.96789     0.00000     0.00000
  in kB      17.95832    13.67111    13.62175     3.75822     0.00000     0.00000
  external pressure =       15.08 kB  Pullay stress =        0.00 kB


 VOLUME and BASIS-vectors are now :
 -----------------------------------------------------------------------------
  energy-cutoff  :      400.00
  volume of cell :     1265.25
      direct lattice vectors                 reciprocal lattice vectors
    10.779751592 -0.027085004  0.000000000     0.092767099  0.000231919  0.000000000
    -0.027085004 10.833920600  0.000000000     0.000231919  0.092303268  0.000000000
     0.000000000  0.000000000 10.833920600     0.000000000  0.000000000  0.092302689

  length of vectors
    10.779785619 10.833954456 10.833920600     0.092767389  0.092303560  0.092302689


 FORCES acting on ions
    electron-ion (+dipol)            ewald-force                    non-local-force                 convergence-correction
 -----------------------------------------------------------------------------------------------
   0.753E-10 0.388E-08 0.428E+00   0.600E-14 0.222E-15 -.305E+00   -.819E-21 -.155E-21 -.123E+00   0.569E-13 0.524E-13 -.333E-05
   0.753E-10 0.388E-08 0.428E+00   0.888E-15 0.355E-14 -.305E+00   0.160E-20 0.844E-23 -.123E+00   -.613E-13 0.598E-13 -.333E-05
   0.753E-10 0.388E-08 0.428E+00   -.133E-13 0.333E-14 -.305E+00   0.139E-20 0.356E-21 -.123E+00   0.136E-13 -.615E-13 -.333E-05
   0.753E-10 0.388E-08 0.428E+00   -.888E-15 0.533E-14 -.305E+00   -.351E-21 -.653E-21 -.123E+00   -.134E-13 -.462E-13 -.333E-05
   0.753E-10 0.388E-08 0.428E+00   -.977E-14 0.888E-14 -.305E+00   0.155E-20 0.290E-21 -.123E+00   -.572E-13 -.141E-13 -.333E-05
   0.753E-10 0.388E-08 0.428E+00   0.178E-14 0.888E-14 -.305E+00   -.105E-20 -.473E-22 -.123E+00   0.503E-13 -.368E-14 -.333E-05
   0.753E-10 0.388E-08 0.428E+00   -.444E-14 0.888E-14 -.305E+00   -.232E-20 -.717E-22 -.123E+00   -.132E-13 0.656E-15 -.333E-05
   0.753E-10 0.388E-08 0.428E+00   -.711E-14 0.711E-14 -.305E+00   0.743E-21 0.302E-21 -.123E+00   0.419E-14 0.140E-13 -.333E-05
   -.241E-10 -.224E-08 -.428E+00   -.133E-14 0.209E-13 0.305E+00   0.251E-20 0.159E-21 0.123E+00   -.202E-13 -.661E-13 0.333E-05
   -.241E-10 -.224E-08 -.428E+00   0.000E+00 0.249E-13 0.305E+00   -.160E-20 0.409E-21 0.123E+00   -.182E-13 0.555E-13 0.333E-05
   -.241E-10 -.224E-08 -.428E+00   -.444E-14 0.169E-13 0.305E+00   -.138E-20 0.499E-21 0.123E+00   0.429E-13 0.529E-13 0.333E-05
   -.241E-10 -.224E-08 -.428E+00   -.533E-14 0.142E-13 0.305E+00   0.352E-21 -.189E-21 0.123E+00   -.714E-14 -.598E-13 0.333E-05
   -.241E-10 -.224E-08 -.428E+00   -.977E-14 0.209E-13 0.305E+00   -.155E-20 0.557E-21 0.123E+00   0.210E-13 0.164E-13 0.333E-05
   -.241E-10 -.224E-08 -.428E+00   -.355E-14 0.213E-13 0.305E+00   0.105E-20 -.379E-21 0.123E+00   0.142E-13 -.799E-13 0.333E-05
   -.241E-10 -.224E-08 -.428E+00   0.755E-14 0.218E-13 0.305E+00   0.571E-20 0.792E-22 0.123E+00   -.449E-13 -.263E-13 0.333E-05
   -.241E-10 -.224E-08 -.428E+00   0.355E-14 0.178E-13 0.305E+00   -.730E-21 0.552E-21 0.123E+00   -.431E-15 0.751E-13 0.333E-05
   0.753E-10 0.388E-08 0.428E+00   0.104E-13 0.888E-14 -.305E+00   -.275E-20 -.601E-21 -.123E+00   0.100E-12 -.511E-13 -.333E-05
   0.753E-10 0.388E-08 0.428E+00   0.102E-13 0.120E-13 -.305E+00   -.591E-22 0.197E-21 -.123E+00   -.892E-13 0.541E-13 -.333E-05
   0.753E-10 0.388E-08 0.428E+00   0.178E-14 0.138E-13 -.305E+00   0.192E-20 0.138E-21 -.123E+00   0.953E-14 0.549E-13 -.333E-05
   0.753E-10 0.388E-08 0.428E+00   0.160E-13 0.164E-13 -.305E+00   -.956E-22 0.453E-22 -.123E+00   -.260E-13 -.572E-13 -.333E-05
   0.753E-10 0.388E-08 0.428E+00   0.122E-13 0.933E-14 -.305E+00   0.168E-20 0.299E-22 -.123E+00   -.106E-12 -.104E-12 -.333E-05
   0.753E-10 0.388E-08 0.428E+00   0.129E-13 0.133E-13 -.305E+00   0.121E-20 0.366E-21 -.123E+00   0.840E-13 0.103E-12 -.333E-05
   0.753E-10 0.388E-08 0.428E+00   0.204E-13 0.799E-14 -.305E+00   -.394E-20 -.378E-21 -.123E+00   -.177E-13 0.100E-12 -.333E-05
   0.753E-10 0.388E-08 0.428E+00   0.142E-13 0.142E-13 -.305E+00   -.125E-20 0.283E-21 -.123E+00   0.254E-13 -.111E-12 -.333E-05
   -.241E-10 -.224E-08 -.428E+00   -.355E-14 0.248E-13 0.305E+00   -.164E-20 -.201E-21 0.123E+00   0.299E-14 -.542E-13 0.333E-05
   -.241E-10 -.224E-08 -.428E+00   0.355E-14 0.130E-13 0.305E+00   0.275E-20 -.249E-21 0.123E+00   -.444E-13 0.555E-13 0.333E-05
   -.241E-10 -.224E-08 -.428E+00   -.888E-14 0.223E-13 0.305E+00   -.159E-20 -.507E-22 0.123E+00   0.328E-13 0.447E-13 0.333E-05
   -.241E-10 -.224E-08 -.428E+00   -.178E-14 0.203E-13 0.305E+00   -.363E-20 -.567E-21 0.123E+00   0.275E-14 -.624E-13 0.333E-05
   -.241E-10 -.224E-08 -.428E+00   -.107E-13 0.203E-13 0.305E+00   0.473E-21 0.475E-21 0.123E+00   0.168E-14 -.704E-13 0.333E-05
   -.241E-10 -.224E-08 -.428E+00   0.355E-14 0.163E-13 0.305E+00   -.337E-20 -.456E-21 0.123E+00   0.371E-13 0.127E-12 0.333E-05
   -.241E-10 -.224E-08 -.428E+00   0.000E+00 0.250E-13 0.305E+00   -.432E-21 0.134E-21 0.123E+00   -.379E-13 0.721E-13 0.333E-05
   -.241E-10 -.224E-08 -.428E+00   0.000E+00 0.166E-13 0.305E+00   0.225E-20 -.475E-21 0.123E+00   -.934E-14 -.129E-12 0.333E-05
   0.753E-10 0.388E-08 0.428E+00   -.577E-14 -.249E-13 -.305E+00   0.201E-20 -.372E-21 -.123E+00   0.116E-12 0.154E-13 -.333E-05
   0.753E-10 0.388E-08 0.428E+00   -.577E-14 -.173E-13 -.305E+00   -.112E-20 -.384E-21 -.123E+00   -.110E-12 0.444E-13 -.333E-05
   0.753E-10 0.388E-08 0.428E+00   -.124E-13 -.240E-13 -.305E+00   -.364E-20 -.803E-22 -.123E+00   0.636E-13 -.147E-13 -.333E-05
   0.753E-10 0.388E-08 0.428E+00   -.711E-14 -.160E-13 -.305E+00   -.190E-20 0.805E-22 -.123E+00   -.558E-13 -.450E-13 -.333E-05
   0.753E-10 0.388E-08 0.428E+00   0.113E-13 -.200E-13 -.305E+00   -.351E-20 -.214E-21 -.123E+00   -.112E-12 -.769E-13 -.333E-05
   0.753E-10 0.388E-08 0.428E+00   0.222E-13 -.231E-13 -.305E+00   -.833E-21 0.541E-21 -.123E+00   0.103E-12 0.110E-12 -.333E-05
   0.753E-10 0.388E-08 0.428E+00   0.711E-14 -.191E-13 -.305E+00   0.189E-20 -.327E-21 -.123E+00   -.655E-13 0.718E-13 -.333E-05
   0.753E-10 0.388E-08 0.428E+00   0.107E-13 -.249E-13 -.305E+00   0.357E-21 0.546E-23 -.123E+00   0.548E-13 -.998E-13 -.333E-05
   -.241E-10 -.224E-08 -.428E+00   -.157E-14 -.799E-14 0.305E+00   -.572E-21 0.398E-21 0.123E+00   0.562E-13 -.591E-13 0.333E-05
   -.241E-10 -.224E-08 -.428E+00   -.156E-13 -.799E-14 0.305E+00   -.371E-20 -.472E-21 0.123E+00   -.668E-13 -.190E-13 0.333E-05
   -.241E-10 -.224E-08 -.428E+00   -.823E-14 -.799E-14 0.305E+00   0.213E-21 0.340E-21 0.123E+00   0.366E-13 0.528E-13 0.333E-05
   -.241E-10 -.224E-08 -.428E+00   -.112E-14 -.151E-13 0.305E+00   0.194E-20 0.770E-22 0.123E+00   0.419E-14 0.115E-13 0.333E-05
   -.241E-10 -.224E-08 -.428E+00   -.181E-14 -.711E-14 0.305E+00   -.860E-21 -.124E-21 0.123E+00   -.525E-13 -.273E-13 0.333E-05
   -.241E-10 -.224E-08 -.428E+00   -.105E-13 -.178E-13 0.305E+00   0.182E-20 -.213E-21 0.123E+00   0.760E-13 0.261E-13 0.333E-05
   -.241E-10 -.224E-08 -.428E+00   -.142E-13 -.142E-13 0.305E+00   -.206E-20 0.414E-21 0.123E+00   -.288E-13 0.155E-13 0.333E-05
   -.241E-10 -.224E-08 -.428E+00   -.262E-13 -.142E-13 0.305E+00   -.358E-20 -.511E-21 0.123E+00   0.814E-14 -.352E-13 0.333E-05
   0.753E-10 0.388E-08 0.428E+00   -.422E-14 -.195E-13 -.305E+00   -.103E-20 0.352E-22 -.123E+00   -.391E-14 0.218E-14 -.333E-05
   0.753E-10 0.388E-08 0.428E+00   0.129E-13 -.115E-13 -.305E+00   0.191E-20 0.272E-21 -.123E+00   -.526E-13 -.224E-14 -.333E-05
   0.753E-10 0.388E-08 0.428E+00   -.755E-14 -.162E-13 -.305E+00   0.403E-21 0.520E-22 -.123E+00   0.579E-13 0.584E-14 -.333E-05
   0.753E-10 0.388E-08 0.428E+00   -.444E-14 -.120E-13 -.305E+00   -.244E-20 -.481E-22 -.123E+00   0.106E-13 -.720E-14 -.333E-05
   0.753E-10 0.388E-08 0.428E+00   0.222E-14 -.147E-13 -.305E+00   0.206E-20 0.385E-21 -.123E+00   -.103E-14 0.460E-13 -.333E-05
   0.753E-10 0.388E-08 0.428E+00   -.133E-14 -.213E-13 -.305E+00   -.291E-20 -.197E-21 -.123E+00   0.551E-13 -.540E-13 -.333E-05
   0.752E-10 0.388E-08 0.428E+00   -.311E-14 -.182E-13 -.305E+00   0.111E-20 0.511E-22 -.123E+00   -.668E-13 -.373E-13 -.333E-05
   0.753E-10 0.388E-08 0.428E+00   -.711E-14 -.178E-13 -.305E+00   0.370E-20 0.397E-21 -.123E+00   -.541E-14 0.346E-13 -.333E-05
   -.241E-10 -.224E-08 -.428E+00   0.354E-14 -.538E-14 0.305E+00   0.272E-20 -.406E-22 0.123E+00   0.148E-12 -.490E-14 0.333E-05
   -.241E-10 -.224E-08 -.428E+00   -.336E-14 -.630E-14 0.305E+00   -.192E-20 0.139E-21 0.123E+00   -.160E-12 0.721E-13 0.333E-05
   -.241E-10 -.224E-08 -.428E+00   -.688E-14 -.874E-14 0.305E+00   -.210E-20 0.358E-21 0.123E+00   0.699E-13 0.456E-14 0.333E-05
   -.241E-10 -.224E-08 -.428E+00   -.290E-14 -.165E-13 0.305E+00   0.244E-20 -.375E-21 0.123E+00   -.248E-13 -.827E-13 0.333E-05
   -.241E-10 -.224E-08 -.428E+00   0.151E-14 -.304E-14 0.305E+00   -.366E-21 0.456E-21 0.123E+00   -.145E-12 -.692E-13 0.333E-05
   -.241E-10 -.224E-08 -.428E+00   -.556E-14 -.106E-13 0.305E+00   0.291E-20 -.231E-21 0.123E+00   0.173E-12 0.614E-13 0.333E-05
   -.241E-10 -.224E-08 -.428E+00   0.176E-13 -.101E-13 0.305E+00   0.228E-20 -.544E-22 0.123E+00   -.611E-13 0.674E-13 0.333E-05
   -.241E-10 -.224E-08 -.428E+00   0.274E-15 -.344E-14 0.305E+00   -.370E-20 0.177E-22 0.123E+00   0.368E-13 -.685E-13 0.333E-05
 -----------------------------------------------------------------------------------------------
   0.164E-08 0.526E-07 -.152E-04   -.273E-13 0.245E-14 -.242E-13   -.119E-19 0.782E-21 0.312E-14   -.965E-14 -.120E-12 0.581E-11
 
 
 POSITION                                       TOTAL-FORCE (eV/Angst)
 -----------------------------------------------------------------------------------
      0.00000      0.00000     10.83204         0.000000     -0.000000     -0.000030
      0.00000      0.00000      5.41508         0.000000     -0.000000     -0.000030
     -0.01354      5.41696     10.83204         0.000000      0.000000     -0.000030
     -0.01354      5.41696      5.41508         0.000000      0.000000     -0.000030
      5.38988     -0.01354     10.83204         0.000000     -0.000000     -0.000030
      5.38988     -0.01354      5.41508         0.000000     -0.000000     -0.000030
      5.37633      5.40342     10.83204         0.000000      0.000000     -0.000030
      5.37633      5.40342      5.41508         0.000000      0.000000     -0.000030
      4.03225      4.05256      1.35612        -0.000000      0.000000      0.000030
      4.03225      4.05256      6.77308        -0.000000     -0.000000      0.000030
      4.01871      9.46952      1.35612         0.000000      0.000000      0.000030
      4.01871      9.46952      6.77308         0.000000     -0.000000      0.000030
      9.42213      4.03902      1.35612        -0.000000     -0.000000      0.000030
      9.42213      4.03902      6.77308        -0.000000     -0.000000      0.000030
      9.40858      9.45598      1.35612         0.000000     -0.000000      0.000030
      9.40858      9.45598      6.77308         0.000000      0.000000      0.000030
     -0.00677      2.70848      2.70660        -0.000000     -0.000000     -0.000030
     -0.00677      2.70848      8.12356        -0.000000      0.000000     -0.000030
     -0.02031      8.12544      2.70660        -0.000000      0.000000     -0.000030
     -0.02031      8.12544      8.12356         0.000000      0.000000     -0.000030
      5.38310      2.69494      2.70660        -0.000000     -0.000000     -0.000030
      5.38310      2.69494      8.12356        -0.000000     -0.000000     -0.000030
      5.36956      8.11190      2.70660        -0.000000      0.000000     -0.000030
      5.36956      8.11190      8.12356        -0.000000      0.000000     -0.000030
      4.03902      1.34408      4.06460         0.000000     -0.000000      0.000030
      4.03902      1.34408      9.48156         0.000000     -0.000000      0.000030
      4.02548      6.76104      4.06460        -0.000000      0.000000      0.000030
      4.02548      6.76104      9.48156        -0.000000      0.000000      0.000030
      9.42890      1.33054      4.06460         0.000000      0.000000      0.000030
      9.42890      1.33054      9.48156         0.000000      0.000000      0.000030
      9.41535      6.74750      4.06460        -0.000000      0.000000      0.000030
      9.41535      6.74750      9.48156        -0.000000     -0.000000      0.000030
      2.69494     -0.00677      2.70660         0.000000     -0.000000     -0.000030
      2.69494     -0.00677      8.12356         0.000000     -0.000000     -0.000030
      2.68140      5.41019      2.70660        -0.000000      0.000000     -0.000030
      2.68140      5.41019      8.12356        -0.000000      0.000000     -0.000030
      8.08481     -0.02031      2.70660        -0.000000     -0.000000     -0.000030
      8.08481     -0.02031      8.12356         0.000000     -0.000000     -0.000030
      8.07127      5.39665      2.70660         0.000000      0.000000     -0.000030
      8.07127      5.39665      8.12356         0.000000      0.000000     -0.000030
      1.33731      4.05933      4.06460        -0.000000      0.000000      0.000030
      1.33731      4.05933      9.48156        -0.000000     -0.000000      0.000030
      1.32377      9.47629      4.06460         0.000000      0.000000      0.000030
      1.32377      9.47629      9.48156         0.000000      0.000000      0.000030
      6.72719      4.04579      4.06460        -0.000000     -0.000000      0.000030
      6.72719      4.04579      9.48156        -0.000000     -0.000000      0.000030
      6.71365      9.46275      4.06460        -0.000000      0.000000      0.000030
      6.71365      9.46275      9.48156         0.000000     -0.000000      0.000030
      2.68817      2.70171     10.83204        -0.000000      0.000000     -0.000030
      2.68817      2.70171      5.41508        -0.000000     -0.000000     -0.000030
      2.67462      8.11867     10.83204        -0.000000      0.000000     -0.000030
      2.67462      8.11867      5.41508        -0.000000      0.000000     -0.000030
      8.07804      2.68817     10.83204         0.000000     -0.000000     -0.000030
      8.07804      2.68817      5.41508        -0.000000     -0.000000     -0.000030
      8.06450      8.10513     10.83204        -0.000000      0.000000     -0.000030
      8.06450      8.10513      5.41508        -0.000000      0.000000     -0.000030
      1.34408      1.35085      1.35612         0.000000     -0.000000      0.000030
      1.34408      1.35085      6.77308         0.000000     -0.000000      0.000030
      1.33054      6.76781      1.35612        -0.000000      0.000000      0.000030
      1.33054      6.76781      6.77308        -0.000000     -0.000000      0.000030
      6.73396      1.33731      1.35612         0.000000     -0.000000      0.000030
      6.73396      1.33731      6.77308         0.000000      0.000000      0.000030
      6.72042      6.75427      1.35612        -0.000000      0.000000      0.000030
      6.72042      6.75427      6.77308        -0.000000      0.000000      0.000030
 -----------------------------------------------------------------------------------
    total drift:                                0.000000      0.000000     -0.000015


--------------------------------------------------------------------------------------------------------



  FREE ENERGIE OF THE ION-ELECTRON SYSTEM (eV)
  ---------------------------------------------------
  free  energy   TOTEN  =      -367.52352019 eV

  energy  without entropy=     -367.55189959  energy(sigma->0) =     -367.53297999
 
 d Force = 0.3671557E-03[-0.122E-05, 0.736E-03]  d Energy = 0.3707930E-03-0.364E-05
 d Force =-0.1188113E-01[-0.125E-01,-0.112E-01]  d Ewald  =-0.1188113E-01-0.121E-08


--------------------------------------------------------------------------------------------------------


    POTLOK:  cpu time      0.1448: real time      0.1452


--------------------------------------------------------------------------------------------------------




--------------------------------------------------------------------------------------------------------


  
 reached required accuracy - stopping structural energy minimisation
     LOOP+:  cpu time     12.5371: real time     12.6785
    4ORBIT:  cpu time      0.0000: real time      0.0000

 total amount of memory used by VASP MPI-rank0    81707. kBytes
=======================================================================

   base      :      30000. kBytes
   nonlr-proj:       4715. kBytes
   fftplans  :      19043. kBytes
   grid      :       7278. kBytes
   one-center:         18. kBytes
   wavefun   :      20653. kBytes
 
  
  
 General timing and accounting informations for this job:
 ========================================================
  
                  Total CPU time used (sec):       61.044
                            User time (sec):       57.679
                          System time (sec):        3.365
                         Elapsed time (sec):       64.643
  
                   Maximum memory used (kb):      412376.
                   Average memory used (kb):          N/A
  
                          Minor page faults:        94472
                          Major page faults:            0
                 Voluntary context switches:         9266
