Si64                                    
           1
    10.779752   -0.027085    0.000000
    -0.027085   10.833921    0.000000
     0.000000    0.000000   10.833921
   Si
    64
Direct configuration=     1
   0.00000000  0.00000000  0.00000000
   0.00000000  0.00000000  0.50000000
   0.00000000  0.50000000  0.00000000
   0.00000000  0.50000000  0.50000000
   0.50000000  0.00000000  0.00000000
   0.50000000  0.00000000  0.50000000
   0.50000000  0.50000000  0.00000000
   0.50000000  0.50000000  0.50000000
   0.37500000  0.37500000  0.12500000
   0.37500000  0.37500000  0.62500000
   0.37500000  0.87500000  0.12500000
   0.37500000  0.87500000  0.62500000
   0.87500000  0.37500000  0.12500000
   0.87500000  0.37500000  0.62500000
   0.87500000  0.87500000  0.12500000
   0.87500000  0.87500000  0.62500000
   0.00000000  0.25000000  0.25000000
   0.00000000  0.25000000  0.75000000
   0.00000000  0.75000000  0.25000000
   0.00000000  0.75000000  0.75000000
   0.50000000  0.25000000  0.25000000
   0.50000000  0.25000000  0.75000000
   0.50000000  0.75000000  0.25000000
   0.50000000  0.75000000  0.75000000
   0.37500000  0.12500000  0.37500000
   0.37500000  0.12500000  0.87500000
   0.37500000  0.62500000  0.37500000
   0.37500000  0.62500000  0.87500000
   0.87500000  0.12500000  0.37500000
   0.87500000  0.12500000  0.87500000
   0.87500000  0.62500000  0.37500000
   0.87500000  0.62500000  0.87500000
   0.25000000  0.00000000  0.25000000
   0.25000000  0.00000000  0.75000000
   0.25000000  0.50000000  0.25000000
   0.25000000  0.50000000  0.75000000
   0.75000000  0.00000000  0.25000000
   0.75000000  0.00000000  0.75000000
   0.75000000  0.50000000  0.25000000
   0.75000000  0.50000000  0.75000000
   0.12500000  0.37500000  0.37500000
   0.12500000  0.37500000  0.87500000
   0.12500000  0.87500000  0.37500000
   0.12500000  0.87500000  0.87500000
   0.62500000  0.37500000  0.37500000
   0.62500000  0.37500000  0.87500000
   0.62500000  0.87500000  0.37500000
   0.62500000  0.87500000  0.87500000
   0.25000000  0.25000000  0.00000000
   0.25000000  0.25000000  0.50000000
   0.25000000  0.75000000  0.00000000
   0.25000000  0.75000000  0.50000000
   0.75000000  0.25000000  0.00000000
   0.75000000  0.25000000  0.50000000
   0.75000000  0.75000000  0.00000000
   0.75000000  0.75000000  0.50000000
   0.12500000  0.12500000  0.12500000
   0.12500000  0.12500000  0.62500000
   0.12500000  0.62500000  0.12500000
   0.12500000  0.62500000  0.62500000
   0.62500000  0.12500000  0.12500000
   0.62500000  0.12500000  0.62500000
   0.62500000  0.62500000  0.12500000
   0.62500000  0.62500000  0.62500000
Direct configuration=     2
   1.00000000  1.00000000  0.99976679
   1.00000000  1.00000000  0.49976679
   0.00000000  0.50000000  0.99976679
   0.00000000  0.50000000  0.49976679
   0.50000000  1.00000000  0.99976679
   0.50000000  1.00000000  0.49976679
   0.50000000  0.50000000  0.99976679
   0.50000000  0.50000000  0.49976679
   0.37500000  0.37500000  0.12523321
   0.37500000  0.37500000  0.62523321
   0.37500000  0.87500000  0.12523321
   0.37500000  0.87500000  0.62523321
   0.87500000  0.37500000  0.12523321
   0.87500000  0.37500000  0.62523321
   0.87500000  0.87500000  0.12523321
   0.87500000  0.87500000  0.62523321
   0.00000000  0.25000000  0.24976679
   0.00000000  0.25000000  0.74976679
   0.00000000  0.75000000  0.24976679
   0.00000000  0.75000000  0.74976679
   0.50000000  0.25000000  0.24976679
   0.50000000  0.25000000  0.74976679
   0.50000000  0.75000000  0.24976679
   0.50000000  0.75000000  0.74976679
   0.37500000  0.12500000  0.37523321
   0.37500000  0.12500000  0.87523321
   0.37500000  0.62500000  0.37523321
   0.37500000  0.62500000  0.87523321
   0.87500000  0.12500000  0.37523321
   0.87500000  0.12500000  0.87523321
   0.87500000  0.62500000  0.37523321
   0.87500000  0.62500000  0.87523321
   0.25000000  1.00000000  0.24976679
   0.25000000  1.00000000  0.74976679
   0.25000000  0.50000000  0.24976679
   0.25000000  0.50000000  0.74976679
   0.75000000  1.00000000  0.24976679
   0.75000000  1.00000000  0.74976679
   0.75000000  0.50000000  0.24976679
   0.75000000  0.50000000  0.74976679
   0.12500000  0.37500000  0.37523321
   0.12500000  0.37500000  0.87523321
   0.12500000  0.87500000  0.37523321
   0.12500000  0.87500000  0.87523321
   0.62500000  0.37500000  0.37523321
   0.62500000  0.37500000  0.87523321
   0.62500000  0.87500000  0.37523321
   0.62500000  0.87500000  0.87523321
   0.25000000  0.25000000  0.99976679
   0.25000000  0.25000000  0.49976679
   0.25000000  0.75000000  0.99976679
   0.25000000  0.75000000  0.49976679
   0.75000000  0.25000000  0.99976679
   0.75000000  0.25000000  0.49976679
   0.75000000  0.75000000  0.99976679
   0.75000000  0.75000000  0.49976679
   0.12500000  0.12500000  0.12523321
   0.12500000  0.12500000  0.62523321
   0.12500000  0.62500000  0.12523321
   0.12500000  0.62500000  0.62523321
   0.62500000  0.12500000  0.12523321
   0.62500000  0.12500000  0.62523321
   0.62500000  0.62500000  0.12523321
   0.62500000  0.62500000  0.62523321
Direct configuration=     3
   0.00000000  0.00000000  0.99982613
   0.00000000  0.00000000  0.49982613
   0.00000000  0.50000000  0.99982613
   0.00000000  0.50000000  0.49982613
   0.50000000  0.00000000  0.99982613
   0.50000000  0.00000000  0.49982613
   0.50000000  0.50000000  0.99982613
   0.50000000  0.50000000  0.49982613
   0.37500000  0.37500000  0.12517387
   0.37500000  0.37500000  0.62517387
   0.37500000  0.87500000  0.12517387
   0.37500000  0.87500000  0.62517387
   0.87500000  0.37500000  0.12517387
   0.87500000  0.37500000  0.62517387
   0.87500000  0.87500000  0.12517387
   0.87500000  0.87500000  0.62517387
   0.00000000  0.25000000  0.24982613
   0.00000000  0.25000000  0.74982613
   0.00000000  0.75000000  0.24982613
   0.00000000  0.75000000  0.74982613
   0.50000000  0.25000000  0.24982613
   0.50000000  0.25000000  0.74982613
   0.50000000  0.75000000  0.24982613
   0.50000000  0.75000000  0.74982613
   0.37500000  0.12500000  0.37517387
   0.37500000  0.12500000  0.87517387
   0.37500000  0.62500000  0.37517387
   0.37500000  0.62500000  0.87517387
   0.87500000  0.12500000  0.37517387
   0.87500000  0.12500000  0.87517387
   0.87500000  0.62500000  0.37517387
   0.87500000  0.62500000  0.87517387
   0.25000000  0.00000000  0.24982613
   0.25000000  0.00000000  0.74982613
   0.25000000  0.50000000  0.24982613
   0.25000000  0.50000000  0.74982613
   0.75000000  0.00000000  0.24982613
   0.75000000  0.00000000  0.74982613
   0.75000000  0.50000000  0.24982613
   0.75000000  0.50000000  0.74982613
   0.12500000  0.37500000  0.37517387
   0.12500000  0.37500000  0.87517387
   0.12500000  0.87500000  0.37517387
   0.12500000  0.87500000  0.87517387
   0.62500000  0.37500000  0.37517387
   0.62500000  0.37500000  0.87517387
   0.62500000  0.87500000  0.37517387
   0.62500000  0.87500000  0.87517387
   0.25000000  0.25000000  0.99982613
   0.25000000  0.25000000  0.49982613
   0.25000000  0.75000000  0.99982613
   0.25000000  0.75000000  0.49982613
   0.75000000  0.25000000  0.99982613
   0.75000000  0.25000000  0.49982613
   0.75000000  0.75000000  0.99982613
   0.75000000  0.75000000  0.49982613
   0.12500000  0.12500000  0.12517387
   0.12500000  0.12500000  0.62517387
   0.12500000  0.62500000  0.12517387
   0.12500000  0.62500000  0.62517387
   0.62500000  0.12500000  0.12517387
   0.62500000  0.12500000  0.62517387
   0.62500000  0.62500000  0.12517387
   0.62500000  0.62500000  0.62517387
