 vasp.6.4.3 19Mar24 (build Oct 21 2024 22:36:34) complex                        
  
 executed on             LinuxIFC date 2024.11.01  22:49:47
 running   96 mpi-ranks, on    1 nodes
 distrk:  each k-point on   24 cores,    4 groups
 distr:  one band on NCORE=  12 cores,    2 groups


--------------------------------------------------------------------------------------------------------


 INCAR:
   SYSTEM = Si64
   ISTART = 0
   ICHARG = 2
   LREAL = Auto
   PREC = Accurate
   LWAVE = .False.
   LCHARG = .False.
   ADDGRID = .True.
   ENCUT = 400
   GGA = PS
   GGA_COMPAT = .FALSE.
   ISMEAR = 1
   SIGMA = 0.2
   NELM = 60
   NELMIN = 8
   EDIFF = 1e-06
   EDIFFG = -0.01
   NSW = 60
   IBRION = 2
   ISIF = 2
   KPAR = 4
   NPAR = 2
   ALGO = Fast

 POTCAR:    PAW_PBE Si 05Jan2001                  
 POTCAR:    PAW_PBE Si 05Jan2001                  
   VRHFIN =Si: s2p2                                                                                 
   LEXCH  = PE                                                                                      
   EATOM  =   103.0669 eV,    7.5752 Ry                                                             
                                                                                                    
   TITEL  = PAW_PBE Si 05Jan2001                                                                    
   LULTRA =        F    use ultrasoft PP ?                                                          
   IUNSCR =        1    unscreen: 0-lin 1-nonlin 2-no                                               
   RPACOR =    1.500    partial core radius                                                         
   POMASS =   28.085; ZVAL   =    4.000    mass and valenz                                          
   RCORE  =    1.900    outmost cutoff radius                                                       
   RWIGS  =    2.480; RWIGS  =    1.312    wigner-seitz radius (au A)                               
   ENMAX  =  245.345; ENMIN  =  184.009 eV                                                          
   ICORE  =        2    local potential                                                             
   LCOR   =        T    correct aug charges                                                         
   LPAW   =        T    paw PP                                                                      
   EAUG   =  322.069                                                                                
   DEXC   =    0.000                                                                                
   RMAX   =    1.950    core radius for proj-oper                                                   
   RAUG   =    1.300    factor for augmentation sphere                                              
   RDEP   =    1.993    radius for radial grids                                                     
   RDEPT  =    1.837    core radius for aug-charge                                                  
                                                                                                    
   Atomic configuration                                                                             
    6 entries                                                                                       
     n  l   j            E        occ.                                                              
     1  0  0.50     -1785.8828   2.0000                                                             
     2  0  0.50      -139.4969   2.0000                                                             
     2  1  1.50       -95.5546   6.0000                                                             
     3  0  0.50       -10.8127   2.0000                                                             
     3  1  0.50        -4.0811   2.0000                                                             
     3  2  1.50        -4.0817   0.0000                                                             
   Description                                                                                      
     l       E           TYP  RCUT    TYP  RCUT                                                     
     0    -10.8127223     23  1.900                                                                 
     0     -7.6451159     23  1.900                                                                 
     1     -4.0811372     23  1.900                                                                 
     1      2.4879257     23  1.900                                                                 
     2     -4.0817478      7  1.900                                                                 
  local pseudopotential read in
  partial core-charges read in
  partial kinetic energy density read in
  atomic valenz-charges read in
  non local Contribution for L=           0  read in
    real space projection operators read in
  non local Contribution for L=           0  read in
    real space projection operators read in
  non local Contribution for L=           1  read in
    real space projection operators read in
  non local Contribution for L=           1  read in
    real space projection operators read in
    PAW grid and wavefunctions read in
 
   number of l-projection  operators is LMAX  =           4
   number of lm-projection operators is LMMAX =           8
 
 Optimization of the real space projectors (new method)

 maximal supplied QI-value         = 19.84
 optimisation between [QCUT,QGAM] = [ 10.12, 20.44] = [ 28.68,116.96] Ry 
 Optimized for a Real-space Cutoff    1.38 Angstroem

   l    n(q)    QCUT    max X(q) W(low)/X(q) W(high)/X(q)  e(spline) 
   0      8    10.119   159.560    0.58E-04    0.11E-03    0.54E-07
   0      8    10.119   115.863    0.56E-04    0.11E-03    0.54E-07
   1      8    10.119    88.339    0.22E-03    0.17E-03    0.19E-06
   1      8    10.119    48.592    0.22E-03    0.17E-03    0.18E-06
 -----------------------------------------------------------------------------
|                                                                             |
|               ----> ADVICE to this user running VASP <----                  |
|                                                                             |
|     You enforced a specific xc type in the INCAR file but a different       |
|     type was found in the POTCAR file.                                      |
|     I HOPE YOU KNOW WHAT YOU ARE DOING!                                     |
|                                                                             |
 -----------------------------------------------------------------------------

  PAW_PBE Si 05Jan2001                  :
 energy of atom  1       EATOM= -103.0669
 kinetic energy error for atom=    0.0012 (will be added to EATOM!!)
 
 
 POSCAR: Si8
  positions in direct lattice
  velocities in cartesian coordinates


 exchange-correlation table for PS
   RHO(1)=    0.500       N(1)  =     2000
   RHO(2)=  100.500       N(2)  =     4000
 


--------------------------------------------------------------------------------------------------------


 ion  position               nearest neighbor table
   1  0.000  0.000  0.000-  30 2.33  44 2.33  15 2.35  57 2.35
   2  0.000  0.000  0.500-  29 2.33  43 2.33  16 2.35  58 2.35
   3  0.000  0.500  0.000-  32 2.33  42 2.33  13 2.35  59 2.35
   4  0.000  0.500  0.500-  31 2.33  41 2.33  14 2.35  60 2.35
   5  0.500  0.000  0.000-  26 2.33  48 2.33  11 2.35  61 2.35
   6  0.500  0.000  0.500-  25 2.33  47 2.33  12 2.35  62 2.35
   7  0.500  0.500  0.000-  28 2.33  46 2.33   9 2.35  63 2.35
   8  0.500  0.500  0.500-  27 2.33  45 2.33  10 2.35  64 2.35
   9  0.375  0.375  0.125-  21 2.33  35 2.33   7 2.35  49 2.35
  10  0.375  0.375  0.625-  22 2.33  36 2.33   8 2.35  50 2.35
  11  0.375  0.875  0.125-  23 2.33  33 2.33   5 2.35  51 2.35
  12  0.375  0.875  0.625-  24 2.33  34 2.33   6 2.35  52 2.35
  13  0.875  0.375  0.125-  17 2.33  39 2.33   3 2.35  53 2.35
  14  0.875  0.375  0.625-  18 2.33  40 2.33   4 2.35  54 2.35
  15  0.875  0.875  0.125-  19 2.33  37 2.33   1 2.35  55 2.35
  16  0.875  0.875  0.625-  20 2.33  38 2.33   2 2.35  56 2.35
  17  0.000  0.250  0.250-  13 2.33  57 2.33  41 2.35  29 2.35
  18  0.000  0.250  0.750-  14 2.33  58 2.33  42 2.35  30 2.35
  19  0.000  0.750  0.250-  15 2.33  59 2.33  43 2.35  31 2.35
  20  0.000  0.750  0.750-  16 2.33  60 2.33  44 2.35  32 2.35
  21  0.500  0.250  0.250-   9 2.33  61 2.33  45 2.35  25 2.35
  22  0.500  0.250  0.750-  10 2.33  62 2.33  46 2.35  26 2.35
  23  0.500  0.750  0.250-  11 2.33  63 2.33  47 2.35  27 2.35
  24  0.500  0.750  0.750-  12 2.33  64 2.33  48 2.35  28 2.35
  25  0.375  0.125  0.375-   6 2.33  50 2.33  33 2.35  21 2.35
  26  0.375  0.125  0.875-   5 2.33  49 2.33  34 2.35  22 2.35
  27  0.375  0.625  0.375-   8 2.33  52 2.33  35 2.35  23 2.35
  28  0.375  0.625  0.875-   7 2.33  51 2.33  36 2.35  24 2.35
  29  0.875  0.125  0.375-   2 2.33  54 2.33  37 2.35  17 2.35
  30  0.875  0.125  0.875-   1 2.33  53 2.33  38 2.35  18 2.35
  31  0.875  0.625  0.375-   4 2.33  56 2.33  39 2.35  19 2.35
  32  0.875  0.625  0.875-   3 2.33  55 2.33  40 2.35  20 2.35
  33  0.250  0.000  0.250-  11 2.33  57 2.33  43 2.35  25 2.35
  34  0.250  0.000  0.750-  12 2.33  58 2.33  44 2.35  26 2.35
  35  0.250  0.500  0.250-   9 2.33  59 2.33  41 2.35  27 2.35
  36  0.250  0.500  0.750-  10 2.33  60 2.33  42 2.35  28 2.35
  37  0.750  0.000  0.250-  15 2.33  61 2.33  47 2.35  29 2.35
  38  0.750  0.000  0.750-  16 2.33  62 2.33  48 2.35  30 2.35
  39  0.750  0.500  0.250-  13 2.33  63 2.33  45 2.35  31 2.35
  40  0.750  0.500  0.750-  14 2.33  64 2.33  46 2.35  32 2.35
  41  0.125  0.375  0.375-   4 2.33  50 2.33  35 2.35  17 2.35
  42  0.125  0.375  0.875-   3 2.33  49 2.33  36 2.35  18 2.35
  43  0.125  0.875  0.375-   2 2.33  52 2.33  33 2.35  19 2.35
  44  0.125  0.875  0.875-   1 2.33  51 2.33  34 2.35  20 2.35
  45  0.625  0.375  0.375-   8 2.33  54 2.33  39 2.35  21 2.35
  46  0.625  0.375  0.875-   7 2.33  53 2.33  40 2.35  22 2.35
  47  0.625  0.875  0.375-   6 2.33  56 2.33  37 2.35  23 2.35
  48  0.625  0.875  0.875-   5 2.33  55 2.33  38 2.35  24 2.35
  49  0.250  0.250  0.000-  26 2.33  42 2.33   9 2.35  57 2.35
  50  0.250  0.250  0.500-  25 2.33  41 2.33  10 2.35  58 2.35
  51  0.250  0.750  0.000-  28 2.33  44 2.33  11 2.35  59 2.35
  52  0.250  0.750  0.500-  27 2.33  43 2.33  12 2.35  60 2.35
  53  0.750  0.250  0.000-  30 2.33  46 2.33  13 2.35  61 2.35
  54  0.750  0.250  0.500-  29 2.33  45 2.33  14 2.35  62 2.35
  55  0.750  0.750  0.000-  32 2.33  48 2.33  15 2.35  63 2.35
  56  0.750  0.750  0.500-  31 2.33  47 2.33  16 2.35  64 2.35
  57  0.125  0.125  0.125-  17 2.33  33 2.33   1 2.35  49 2.35
  58  0.125  0.125  0.625-  18 2.33  34 2.33   2 2.35  50 2.35
  59  0.125  0.625  0.125-  19 2.33  35 2.33   3 2.35  51 2.35
  60  0.125  0.625  0.625-  20 2.33  36 2.33   4 2.35  52 2.35
  61  0.625  0.125  0.125-  21 2.33  37 2.33   5 2.35  53 2.35
  62  0.625  0.125  0.625-  22 2.33  38 2.33   6 2.35  54 2.35
  63  0.625  0.625  0.125-  23 2.33  39 2.33   7 2.35  55 2.35
  64  0.625  0.625  0.625-  24 2.33  40 2.33   8 2.35  56 2.35
 
  LATTYP: Found a simple monoclinic cell.
 ALAT       =    10.7644363267
 B/A-ratio  =     0.9999718762
 C/A-ratio  =     1.0149991644
 COS(beta)  =    -0.0148883392
  
  Lattice vectors:
  
 A1 = (   0.0807310119,  10.7641335897,   0.0000000000)
 A2 = (   0.0000000000,   0.0000000000, -10.7641335897)
 A3 = ( -10.9255956135,  -0.0807310119,   0.0000000000)


Analysis of symmetry for initial positions (statically):
=====================================================================
 Subroutine PRICEL returns following result:
 
  LATTYP: Found a base centered monoclinic cell.
 ALAT       =     5.3822181634
 B/A-ratio  =     0.9999718762
 C/A-ratio  =     0.7071067812
 COS(beta)  =    -0.6964212297
  
  Lattice vectors:
  
 A1 = (   0.0201827530,   2.6910333974,  -2.6910333974)
 A2 = (   0.0201827530,   2.6910333974,   2.6910333974)
 A3 = (   2.7112161504,  -2.6708506444,   0.0000000000)
 
  32 primitive cells build up your supercell.
 

 Routine SETGRP: Setting up the symmetry group for a 
 simple monoclinic supercell.


 Subroutine GETGRP returns: Found  4 space group operations
 (whereof  2 operations were pure point group operations)
 out of a pool of  4 trial point group operations.


The static configuration has the point symmetry C_2 .
 The point group associated with its full space group is C_2h.


Analysis of symmetry for dynamics (positions and initial velocities):
=====================================================================
 Subroutine PRICEL returns following result:
 
  LATTYP: Found a base centered monoclinic cell.
 ALAT       =     5.3822181634
 B/A-ratio  =     0.9999718762
 C/A-ratio  =     0.7071067812
 COS(beta)  =    -0.6964212297
  
  Lattice vectors:
  
 A1 = (   0.0201827530,   2.6910333974,  -2.6910333974)
 A2 = (   0.0201827530,   2.6910333974,   2.6910333974)
 A3 = (   2.7112161504,  -2.6708506444,   0.0000000000)
 
  32 primitive cells build up your supercell.
 

 Routine SETGRP: Setting up the symmetry group for a 
 simple monoclinic supercell.


 Subroutine GETGRP returns: Found  4 space group operations
 (whereof  2 operations were pure point group operations)
 out of a pool of  4 trial point group operations.


The dynamic configuration has the point symmetry C_2 .
 The point group associated with its full space group is C_2h.


 Subroutine INISYM returns: Found  4 space group operations
 (whereof  2 operations are pure point group operations),
 and found    32 'primitive' translations


----------------------------------------------------------------------------------------

                                     Primitive cell                                     

  volume of cell :      39.5575

  direct lattice vectors                    reciprocal lattice vectors
     0.020182753  2.691033397 -2.691033397     0.181693528  0.184439526 -0.185802228
     0.020182753  2.691033397  2.691033397     0.181693528  0.184439526  0.185802228
     2.711216150 -2.670850644  0.000000000     0.366133054 -0.002745998  0.000000000

  length of vectors
     3.805749445  3.805749445  3.805802961     0.318673728  0.318673728  0.366143351

  position of ions in fractional coordinates (direct lattice)
     0.000000000  0.000000000  0.000000000
     0.250000000  0.750000000  0.500000000

  ion indices of the primitive-cell ions
   primitive index   ion index
                 1           1
                 2          15

----------------------------------------------------------------------------------------

 
 
 KPOINTS: Automatic mesh                          

Automatic generation of k-mesh.
 Grid dimensions read from file:
 generate k-points for:    2    2    2

 Generating k-lattice:

  Cartesian coordinates                     Fractional coordinates (reciprocal lattice)
     0.045766632 -0.000343250  0.000000000     0.500000000 -0.000000000  0.000000000
    -0.000343250  0.046453131  0.000000000    -0.000000000  0.500000000  0.000000000
     0.000000000  0.000000000  0.046450557     0.000000000  0.000000000  0.500000000

  Length of vectors
     0.045767919  0.046454399  0.046450557

  Shift w.r.t. Gamma in fractional coordinates (k-lattice)
     0.000000000  0.000000000  0.000000000

 
 Subroutine IBZKPT returns following result:
 ===========================================
 
 Found      8 irreducible k-points:
 
 Following reciprocal coordinates:
            Coordinates               Weight
  0.000000  0.000000  0.000000      1.000000
  0.500000  0.000000  0.000000      1.000000
  0.000000  0.500000  0.000000      1.000000
  0.500000  0.500000  0.000000      1.000000
  0.000000  0.000000  0.500000      1.000000
  0.500000  0.000000  0.500000      1.000000
  0.000000  0.500000  0.500000      1.000000
  0.500000  0.500000  0.500000      1.000000
 
 Following cartesian coordinates:
            Coordinates               Weight
  0.000000  0.000000  0.000000      1.000000
  0.045767 -0.000343  0.000000      1.000000
 -0.000343  0.046453  0.000000      1.000000
  0.045423  0.046110  0.000000      1.000000
  0.000000  0.000000  0.046451      1.000000
  0.045767 -0.000343  0.046451      1.000000
 -0.000343  0.046453  0.046451      1.000000
  0.045423  0.046110  0.046451      1.000000
 


--------------------------------------------------------------------------------------------------------




 Dimension of arrays:
   k-points           NKPTS =      8   k-points in BZ     NKDIM =      8   number of bands    NBANDS=    162
   number of dos      NEDOS =    301   number of ions     NIONS =     64
   non local maximal  LDIM  =      4   non local SUM 2l+1 LMDIM =      8
   total plane-waves  NPLWV = 352800
   max r-space proj   IRMAX =   3121   max aug-charges    IRDMAX=  74739
   dimension x,y,z NGX =    72 NGY =   70 NGZ =   70
   dimension x,y,z NGXF=   144 NGYF=  140 NGZF=  140
   support grid    NGXF=   288 NGYF=  280 NGZF=  280
   ions per type =              64
   NGX,Y,Z   is equivalent  to a cutoff of  10.96, 10.81, 10.81 a.u.
   NGXF,Y,Z  is equivalent  to a cutoff of  21.91, 21.62, 21.62 a.u.

 SYSTEM =  Si64                                    
 POSCAR =  Si8                                     

 Startparameter for this run:
   NWRITE =      2    write-flag & timer
   PREC   = accura    normal or accurate (medium, high low for compatibility)
   ISTART =      0    job   : 0-new  1-cont  2-samecut
   ICHARG =      2    charge: 1-file 2-atom 10-const
   ISPIN  =      1    spin polarized calculation?
   LNONCOLLINEAR =      F non collinear calculations
   LSORBIT =      F    spin-orbit coupling
   INIWAV =      1    electr: 0-lowe 1-rand  2-diag
   LASPH  =      F    aspherical Exc in radial PAW
 Electronic Relaxation 1
   ENCUT  =  400.0 eV  29.40 Ry    5.42 a.u.  17.82 17.55 17.55*2*pi/ulx,y,z
   ENINI  =  400.0     initial cutoff
   ENAUG  =  322.1 eV  augmentation charge cutoff
   NELM   =     60;   NELMIN=  8; NELMDL= -5     # of ELM steps 
   EDIFF  = 0.1E-05   stopping-criterion for ELM
   LREAL  =      T    real-space projection
   NLSPLINE    = F    spline interpolate recip. space projectors
   LCOMPAT=      F    compatible to vasp.4.4
   GGA_COMPAT  = F    GGA compatible to vasp.4.4-vasp.4.6
   LMAXPAW     = -100 max onsite density
   LMAXMIX     =    2 max onsite mixed and CHGCAR
   VOSKOWN=      0    Vosko Wilk Nusair interpolation
   ROPT   =   -0.00025
 Ionic relaxation
   EDIFFG = -.1E-01   stopping-criterion for IOM
   NSW    =     60    number of steps for IOM
   NBLOCK =      1;   KBLOCK =     60    inner block; outer block 
   IBRION =      2    ionic relax: 0-MD 1-quasi-New 2-CG
   NFREE  =      1    steps in history (QN), initial steepest desc. (CG)
   ISIF   =      2    stress and relaxation
   IWAVPR =     11    prediction:  0-non 1-charg 2-wave 3-comb
   ISYM   =      2    0-nonsym 1-usesym 2-fastsym
   LCORR  =      T    Harris-Foulkes like correction to forces

   POTIM  = 0.5000    time-step for ionic-motion
   TEIN   =    0.0    initial temperature
   TEBEG  =    0.0;   TEEND  =   0.0 temperature during run
   SMASS  =  -3.00    Nose mass-parameter (am)
   estimated Nose-frequenzy (Omega)   =  0.10E-29 period in steps = 0.13E+47 mass=  -0.273E-26a.u.
   SCALEE = 1.0000    scale energy and forces
   NPACO  =    256;   APACO  = 10.0  distance and # of slots for P.C.
   PSTRESS=    0.0 pullay stress

  Mass of Ions in am
   POMASS =  28.09
  Ionic Valenz
   ZVAL   =   4.00
  Atomic Wigner-Seitz radii
   RWIGS  =  -1.00
  virtual crystal weights 
   VCA    =   1.00
   NELECT =     256.0000    total number of electrons
   NUPDOWN=      -1.0000    fix difference up-down

 DOS related values:
   EMIN   =  10.00;   EMAX   =-10.00  energy-range for DOS
   EFERMI =   0.00;   METHOD = LEGACY      
   ISMEAR =     1;   SIGMA  =   0.20  broadening in eV -4-tet -1-fermi 0-gaus

 Electronic relaxation 2 (details)
   IALGO  =     68    algorithm
   LDIAG  =      T    sub-space diagonalisation (order eigenvalues)
   LSUBROT=      F    optimize rotation matrix (better conditioning)
   TURBO    =      0    0=normal 1=particle mesh
   IRESTART =      0    0=no restart 2=restart with 2 vectors
   NREBOOT  =      0    no. of reboots
   NMIN     =      0    reboot dimension
   EREF     =   0.00    reference energy to select bands
   IMIX   =      4    mixing-type and parameters
     AMIX     =   0.40;   BMIX     =  1.00
     AMIX_MAG =   1.60;   BMIX_MAG =  1.00
     AMIN     =   0.10
     WC   =   100.;   INIMIX=   1;  MIXPRE=   1;  MAXMIX= -45

 Intra band minimization:
   WEIMIN = 0.0010     energy-eigenvalue tresh-hold
   EBREAK =  0.15E-08  absolut break condition
   DEPER  =   0.30     relativ break condition  

   TIME   =   0.40     timestep for ELM

  volume/ion in A,a.u.               =      19.78       133.47
  Fermi-wavevector in a.u.,A,eV,Ry     =   0.960937  1.815908 12.563628  0.923401
  Thomas-Fermi vector in A             =   2.090265
 
 Write flags
   LWAVE        =      F    write WAVECAR
   LDOWNSAMPLE  =      F    k-point downsampling of WAVECAR
   LCHARG       =      F    write CHGCAR
   LVTOT        =      F    write LOCPOT, total local potential
   LVHAR        =      F    write LOCPOT, Hartree potential only
   WRT_POTENTIAL= false  ! write potential to hdf5 file
   LELF         =      F    write electronic localiz. function (ELF)
   LORBIT       =      0    0 simple, 1 ext, 2 COOP (PROOUT), +10 PAW based schemes


 Dipole corrections
   LMONO      =      F    monopole corrections only (constant potential shift)
   LDIPOL     =      F    correct potential (dipole corrections)
   IDIPOL     =      0    1-x, 2-y, 3-z, 4-all directions 
   EPSILON    =  1.0000000 bulk dielectric constant
   LVACPOTAV  =      F  vacuum potentials using an averaging scheme for the charge density
   VACPOTFLAT =  0.1000000 required flatness to determine vacuum potential
 Exchange correlation treatment:
   GGA     = PS    functional components
   XC_C    = 1    coefficients multiplying the functional components
   LIBXC   =     F    Libxc                    
   VOSKOWN =     0    Vosko Wilk Nusair interpolation
   LHFCALC =     F    Hartree Fock is set to
   LHFONE  =     F    Hartree Fock one center treatment
   AEXX    =    0.0000 exact exchange contribution

 Parameters of functionals:
   PS:
     No parameter
 
 Van der Waals corrections
   IVDW    =     0    specifies the selected vdW correction

 Linear response parameters
   LEPSILON=     F    determine dielectric tensor
   LRPA    =     F    only Hartree local field effects (RPA)
   LNABLA  =     F    use nabla operator in PAW spheres
   LVEL    =     F    velocity operator in full k-point grid
   CSHIFT  =0.1000    complex shift for real part using Kramers Kronig
   OMEGAMAX=  -1.0    maximum frequency
   DEG_THRESHOLD= 0.2000000E-02 threshold for treating states as degnerate
   RTIME   =   -0.100 relaxation time in fs
  (WPLASMAI=    0.000 imaginary part of plasma frequency in eV, 0.658/RTIME)
   DFIELD  = 0.0000000 0.0000000 0.0000000 field for delta impulse in time
 
  Optional k-point grid parameters
   LKPOINTS_OPT  =     F    use optional k-point grid
   KPOINTS_OPT_MODE=     1    mode for optional k-point grid
 
 Orbital magnetization related:
   ORBITALMAG=     F  switch on orbital magnetization
   LCHIMAG   =     F  perturbation theory with respect to B field
   DQ        =  0.001000  dq finite difference perturbation B field
   LLRAUG    =     F  two centre corrections for induced B field
   LBONE     =     F  B-component reconstruction in AE one-centre
   LVGVCALC  =     T  calculate vGv susceptibility
   LVGVAPPL  =     F  apply vGv susceptibility instead of pGv for G=0

 Random number generation:
   RANDOM_GENERATOR = DEFAULT
   PCG_SEED         = not used


--------------------------------------------------------------------------------------------------------


 conjugate gradient relaxation of ions
 charge density and potential will be updated during run
 non-spin polarized calculation
 RMM-DIIS sequential band-by-band and
  variant of blocked Davidson during initial phase
 perform sub-space diagonalisation
    before iterative eigenvector-optimisation
 modified Broyden-mixing scheme, WC =      100.0
 initial mixing is a Kerker type mixing with AMIX =  0.4000 and BMIX =      1.0000
 Hartree-type preconditioning will be used
 using additional bands           34
 real space projection scheme for non local part
 use partial core corrections
 calculate Harris-corrections to forces 
   (improved forces if not selfconsistent)
 use gradient corrections 
 use of overlap-Matrix (Vanderbilt PP)
 Methfessel and Paxton  Order N= 1 SIGMA  =   0.20


--------------------------------------------------------------------------------------------------------


  energy-cutoff  :      400.00
  volume of cell :     1265.84
      direct lattice vectors                 reciprocal lattice vectors
    10.925595613  0.080731012  0.000000000     0.091533263 -0.000686500  0.000000000
     0.080731012 10.764133590  0.000000000    -0.000686500  0.092906263  0.000000000
     0.000000000  0.000000000 10.764133590     0.000000000  0.000000000  0.092901114

  length of vectors
    10.925893877 10.764436327 10.764133590     0.091535838  0.092908799  0.092901114


 
 k-points in units of 2pi/SCALE and weight: Automatic mesh                          
   0.00000000  0.00000000  0.00000000       0.125
   0.04576664 -0.00034325  0.00000000       0.125
  -0.00034325  0.04645314  0.00000000       0.125
   0.04542339  0.04610989  0.00000000       0.125
   0.00000000  0.00000000  0.04645056       0.125
   0.04576664 -0.00034325  0.04645056       0.125
  -0.00034325  0.04645314  0.04645056       0.125
   0.04542339  0.04610989  0.04645056       0.125
 
 k-points in reciprocal lattice and weights: Automatic mesh                          
   0.00000000  0.00000000  0.00000000       0.125
   0.50000000  0.00000000  0.00000000       0.125
   0.00000000  0.50000000  0.00000000       0.125
   0.50000000  0.50000000  0.00000000       0.125
   0.00000000  0.00000000  0.50000000       0.125
   0.50000000  0.00000000  0.50000000       0.125
   0.00000000  0.50000000  0.50000000       0.125
   0.50000000  0.50000000  0.50000000       0.125
 
 position of ions in fractional coordinates (direct lattice) 
   0.00000000  0.00000000  0.00000000
   0.00000000  0.00000000  0.50000000
   0.00000000  0.50000000  0.00000000
   0.00000000  0.50000000  0.50000000
   0.50000000  0.00000000  0.00000000
   0.50000000  0.00000000  0.50000000
   0.50000000  0.50000000  0.00000000
   0.50000000  0.50000000  0.50000000
   0.37500000  0.37500000  0.12500000
   0.37500000  0.37500000  0.62500000
   0.37500000  0.87500000  0.12500000
   0.37500000  0.87500000  0.62500000
   0.87500000  0.37500000  0.12500000
   0.87500000  0.37500000  0.62500000
   0.87500000  0.87500000  0.12500000
   0.87500000  0.87500000  0.62500000
   0.00000000  0.25000000  0.25000000
   0.00000000  0.25000000  0.75000000
   0.00000000  0.75000000  0.25000000
   0.00000000  0.75000000  0.75000000
   0.50000000  0.25000000  0.25000000
   0.50000000  0.25000000  0.75000000
   0.50000000  0.75000000  0.25000000
   0.50000000  0.75000000  0.75000000
   0.37500000  0.12500000  0.37500000
   0.37500000  0.12500000  0.87500000
   0.37500000  0.62500000  0.37500000
   0.37500000  0.62500000  0.87500000
   0.87500000  0.12500000  0.37500000
   0.87500000  0.12500000  0.87500000
   0.87500000  0.62500000  0.37500000
   0.87500000  0.62500000  0.87500000
   0.25000000  0.00000000  0.25000000
   0.25000000  0.00000000  0.75000000
   0.25000000  0.50000000  0.25000000
   0.25000000  0.50000000  0.75000000
   0.75000000  0.00000000  0.25000000
   0.75000000  0.00000000  0.75000000
   0.75000000  0.50000000  0.25000000
   0.75000000  0.50000000  0.75000000
   0.12500000  0.37500000  0.37500000
   0.12500000  0.37500000  0.87500000
   0.12500000  0.87500000  0.37500000
   0.12500000  0.87500000  0.87500000
   0.62500000  0.37500000  0.37500000
   0.62500000  0.37500000  0.87500000
   0.62500000  0.87500000  0.37500000
   0.62500000  0.87500000  0.87500000
   0.25000000  0.25000000  0.00000000
   0.25000000  0.25000000  0.50000000
   0.25000000  0.75000000  0.00000000
   0.25000000  0.75000000  0.50000000
   0.75000000  0.25000000  0.00000000
   0.75000000  0.25000000  0.50000000
   0.75000000  0.75000000  0.00000000
   0.75000000  0.75000000  0.50000000
   0.12500000  0.12500000  0.12500000
   0.12500000  0.12500000  0.62500000
   0.12500000  0.62500000  0.12500000
   0.12500000  0.62500000  0.62500000
   0.62500000  0.12500000  0.12500000
   0.62500000  0.12500000  0.62500000
   0.62500000  0.62500000  0.12500000
   0.62500000  0.62500000  0.62500000
 
 position of ions in cartesian coordinates  (Angst):
   0.00000000  0.00000000  0.00000000
   0.00000000  0.00000000  5.38206679
   0.04036551  5.38206679  0.00000000
   0.04036551  5.38206679  5.38206679
   5.46279781  0.04036551  0.00000000
   5.46279781  0.04036551  5.38206679
   5.50316331  5.42243230  0.00000000
   5.50316331  5.42243230  5.38206679
   4.12737248  4.06682423  1.34551670
   4.12737248  4.06682423  6.72758349
   4.16773799  9.44889102  1.34551670
   4.16773799  9.44889102  6.72758349
   9.59017029  4.10718973  1.34551670
   9.59017029  4.10718973  6.72758349
   9.63053580  9.48925653  1.34551670
   9.63053580  9.48925653  6.72758349
   0.02018275  2.69103340  2.69103340
   0.02018275  2.69103340  8.07310019
   0.06054826  8.07310019  2.69103340
   0.06054826  8.07310019  8.07310019
   5.48298056  2.73139890  2.69103340
   5.48298056  2.73139890  8.07310019
   5.52334607  8.11346570  2.69103340
   5.52334607  8.11346570  8.07310019
   4.10718973  1.37579083  4.03655010
   4.10718973  1.37579083  9.41861689
   4.14755524  6.75785762  4.03655010
   4.14755524  6.75785762  9.41861689
   9.56998754  1.41615633  4.03655010
   9.56998754  1.41615633  9.41861689
   9.61035304  6.79822313  4.03655010
   9.61035304  6.79822313  9.41861689
   2.73139890  0.02018275  2.69103340
   2.73139890  0.02018275  8.07310019
   2.77176441  5.40224955  2.69103340
   2.77176441  5.40224955  8.07310019
   8.19419671  0.06054826  2.69103340
   8.19419671  0.06054826  8.07310019
   8.23456222  5.44261505  2.69103340
   8.23456222  5.44261505  8.07310019
   1.39597358  4.04664147  4.03655010
   1.39597358  4.04664147  9.41861689
   1.43633909  9.42870827  4.03655010
   1.43633909  9.42870827  9.41861689
   6.85877139  4.08700698  4.03655010
   6.85877139  4.08700698  9.41861689
   6.89913689  9.46907377  4.03655010
   6.89913689  9.46907377  9.41861689
   2.75158166  2.71121615  0.00000000
   2.75158166  2.71121615  5.38206679
   2.79194716  8.09328295  0.00000000
   2.79194716  8.09328295  5.38206679
   8.21437946  2.75158166  0.00000000
   8.21437946  2.75158166  5.38206679
   8.25474497  8.13364845  0.00000000
   8.25474497  8.13364845  5.38206679
   1.37579083  1.35560808  1.34551670
   1.37579083  1.35560808  6.72758349
   1.41615633  6.73767487  1.34551670
   1.41615633  6.73767487  6.72758349
   6.83858863  1.39597358  1.34551670
   6.83858863  1.39597358  6.72758349
   6.87895414  6.77804038  1.34551670
   6.87895414  6.77804038  6.72758349
 


--------------------------------------------------------------------------------------------------------


 k-point     1 :   0.0000 0.0000 0.0000  plane waves:   23025
 k-point     2 :   0.5000 0.0000 0.0000  plane waves:   23054
 k-point     3 :   0.0000 0.5000 0.0000  plane waves:   22990
 k-point     4 :   0.5000 0.5000 0.0000  plane waves:   23008
 k-point     5 :   0.0000 0.0000 0.5000  plane waves:   22988
 k-point     6 :   0.5000 0.0000 0.5000  plane waves:   22980
 k-point     7 :   0.0000 0.5000 0.5000  plane waves:   23008
 k-point     8 :   0.5000 0.5000 0.5000  plane waves:   22932

 maximum and minimum number of plane-waves per node :      1949     1894

 maximum number of plane-waves:     23054
 maximum index in each direction: 
   IXMAX=   17   IYMAX=   17   IZMAX=   17
   IXMIN=  -18   IYMIN=  -18   IZMIN=  -18


 real space projection operators:
  total allocation   :      11874.50 KBytes
  max/ min on nodes  :       1005.00        964.50


 parallel 3D FFT for wavefunctions:
    minimum data exchange during FFTs selected (reduces bandwidth)
 parallel 3D FFT for charge:
    minimum data exchange during FFTs selected (reduces bandwidth)


 total amount of memory used by VASP MPI-rank0    80156. kBytes
=======================================================================

   base      :      30000. kBytes
   nonlr-proj:       4554. kBytes
   fftplans  :      18113. kBytes
   grid      :       6881. kBytes
   one-center:         18. kBytes
   wavefun   :      20590. kBytes
 
     INWAV:  cpu time      0.0000: real time      0.0000
 Broyden mixing: mesh for mixing (old mesh)
   NGX = 35   NGY = 35   NGZ = 35
  (NGX  =144   NGY  =140   NGZ  =140)
  gives a total of  42875 points

 initial charge density was supplied:
 charge density of overlapping atoms calculated
 number of electron     256.0000000 magnetization 
 keeping initial charge density in first step


--------------------------------------------------------------------------------------------------------


 Maximum index for non-local projection operator          276
 Maximum index for augmentation-charges         3268 (set IRDMAX)


--------------------------------------------------------------------------------------------------------


 First call to EWALD:  gamma=   0.164
 Maximum number of real-space cells 3x 3x 3
 Maximum number of reciprocal cells 3x 3x 3

    FEWALD:  cpu time      0.0066: real time      0.0066


--------------------------------------- Ionic step        1  -------------------------------------------




--------------------------------------- Iteration      1(   1)  ---------------------------------------


    POTLOK:  cpu time      0.0933: real time      0.1044
    SETDIJ:  cpu time      0.0873: real time      0.0901
     EDDAV:  cpu time      1.2904: real time      1.3617
       DOS:  cpu time      0.0091: real time      0.0125
    --------------------------------------------
      LOOP:  cpu time      1.4801: real time      1.5687

 eigenvalue-minimisations  :  2592
 total energy-change (2. order) : 0.5610152E+03  (-0.8382304E+04)
 number of electron     256.0000000 magnetization 
 augmentation part      256.0000000 magnetization 

 Free energy of the ion-electron system (eV)
  ---------------------------------------------------
  alpha Z        PSCENC =       108.92692438
  Ewald energy   TEWEN  =     -7342.72139500
  -Hartree energ DENC   =      -346.43729721
  -exchange      EXHF   =         0.00000000
  -V(xc)+E(xc)   XCENC  =      -557.18070803
  PAW double counting   =      5598.62625415    -4492.17844134
  entropy T*S    EENTRO =        -0.00611650
  eigenvalues    EBANDS =      1027.19016618
  atomic energy  EATOM  =      6564.79586099
  Solvation  Ediel_sol  =         0.00000000
  ---------------------------------------------------
  free energy    TOTEN  =       561.01524763 eV

  energy without entropy =      561.02136412  energy(sigma->0) =      561.01728646


--------------------------------------------------------------------------------------------------------




--------------------------------------- Iteration      1(   2)  ---------------------------------------


     EDDAV:  cpu time      1.3379: real time      1.3512
       DOS:  cpu time      0.0013: real time      0.0013
    --------------------------------------------
      LOOP:  cpu time      1.3392: real time      1.3525

 eigenvalue-minimisations  :  3104
 total energy-change (2. order) :-0.8720067E+03  (-0.8278316E+03)
 number of electron     256.0000000 magnetization 
 augmentation part      256.0000000 magnetization 

 Free energy of the ion-electron system (eV)
  ---------------------------------------------------
  alpha Z        PSCENC =       108.92692438
  Ewald energy   TEWEN  =     -7342.72139500
  -Hartree energ DENC   =      -346.43729721
  -exchange      EXHF   =         0.00000000
  -V(xc)+E(xc)   XCENC  =      -557.18070803
  PAW double counting   =      5598.62625415    -4492.17844134
  entropy T*S    EENTRO =         0.01435234
  eigenvalues    EBANDS =       155.16299307
  atomic energy  EATOM  =      6564.79586099
  Solvation  Ediel_sol  =         0.00000000
  ---------------------------------------------------
  free energy    TOTEN  =      -310.99145665 eV

  energy without entropy =     -311.00580899  energy(sigma->0) =     -310.99624076


--------------------------------------------------------------------------------------------------------




--------------------------------------- Iteration      1(   3)  ---------------------------------------


     EDDAV:  cpu time      1.3678: real time      1.3741
       DOS:  cpu time      0.0016: real time      0.0016
    --------------------------------------------
      LOOP:  cpu time      1.3694: real time      1.3757

 eigenvalue-minimisations  :  3144
 total energy-change (2. order) :-0.6218334E+02  (-0.6103340E+02)
 number of electron     256.0000000 magnetization 
 augmentation part      256.0000000 magnetization 

 Free energy of the ion-electron system (eV)
  ---------------------------------------------------
  alpha Z        PSCENC =       108.92692438
  Ewald energy   TEWEN  =     -7342.72139500
  -Hartree energ DENC   =      -346.43729721
  -exchange      EXHF   =         0.00000000
  -V(xc)+E(xc)   XCENC  =      -557.18070803
  PAW double counting   =      5598.62625415    -4492.17844134
  entropy T*S    EENTRO =         0.00651570
  eigenvalues    EBANDS =        92.98748473
  atomic energy  EATOM  =      6564.79586099
  Solvation  Ediel_sol  =         0.00000000
  ---------------------------------------------------
  free energy    TOTEN  =      -373.17480162 eV

  energy without entropy =     -373.18131732  energy(sigma->0) =     -373.17697352


--------------------------------------------------------------------------------------------------------




--------------------------------------- Iteration      1(   4)  ---------------------------------------


     EDDAV:  cpu time      1.3727: real time      1.4011
       DOS:  cpu time      0.0012: real time      0.0012
    --------------------------------------------
      LOOP:  cpu time      1.3739: real time      1.4023

 eigenvalue-minimisations  :  3144
 total energy-change (2. order) :-0.1628266E+01  (-0.1615811E+01)
 number of electron     256.0000000 magnetization 
 augmentation part      256.0000000 magnetization 

 Free energy of the ion-electron system (eV)
  ---------------------------------------------------
  alpha Z        PSCENC =       108.92692438
  Ewald energy   TEWEN  =     -7342.72139500
  -Hartree energ DENC   =      -346.43729721
  -exchange      EXHF   =         0.00000000
  -V(xc)+E(xc)   XCENC  =      -557.18070803
  PAW double counting   =      5598.62625415    -4492.17844134
  entropy T*S    EENTRO =         0.00800284
  eigenvalues    EBANDS =        91.35773164
  atomic energy  EATOM  =      6564.79586099
  Solvation  Ediel_sol  =         0.00000000
  ---------------------------------------------------
  free energy    TOTEN  =      -374.80306758 eV

  energy without entropy =     -374.81107042  energy(sigma->0) =     -374.80573519


--------------------------------------------------------------------------------------------------------




--------------------------------------- Iteration      1(   5)  ---------------------------------------


     EDDAV:  cpu time      1.3472: real time      1.3662
       DOS:  cpu time      0.0012: real time      0.0012
    CHARGE:  cpu time      0.2567: real time      0.2599
    MIXING:  cpu time      0.0091: real time      0.0101
    --------------------------------------------
      LOOP:  cpu time      1.6142: real time      1.6374

 eigenvalue-minimisations  :  3108
 total energy-change (2. order) :-0.4825232E-01  (-0.4806792E-01)
 number of electron     256.0000001 magnetization 
 augmentation part      -14.9949406 magnetization 

 Broyden mixing:
  rms(total) = 0.28578E+01    rms(broyden)= 0.28577E+01
  rms(prec ) = 0.31468E+01
  weight for this iteration     100.00

 Free energy of the ion-electron system (eV)
  ---------------------------------------------------
  alpha Z        PSCENC =       108.92692438
  Ewald energy   TEWEN  =     -7342.72139500
  -Hartree energ DENC   =      -346.43729721
  -exchange      EXHF   =         0.00000000
  -V(xc)+E(xc)   XCENC  =      -557.18070803
  PAW double counting   =      5598.62625415    -4492.17844134
  entropy T*S    EENTRO =         0.00801949
  eigenvalues    EBANDS =        91.30946266
  atomic energy  EATOM  =      6564.79586099
  Solvation  Ediel_sol  =         0.00000000
  ---------------------------------------------------
  free energy    TOTEN  =      -374.85131990 eV

  energy without entropy =     -374.85933939  energy(sigma->0) =     -374.85399306


--------------------------------------------------------------------------------------------------------




--------------------------------------- Iteration      1(   6)  ---------------------------------------


    POTLOK:  cpu time      0.0746: real time      0.0905
    SETDIJ:  cpu time      0.0729: real time      0.0731
    EDDIAG:  cpu time      0.1401: real time      0.1425
  RMM-DIIS:  cpu time      0.6990: real time      0.7025
    ORTHCH:  cpu time      0.0209: real time      0.0209
       DOS:  cpu time      0.0013: real time      0.0013
    CHARGE:  cpu time      0.2461: real time      0.2467
    MIXING:  cpu time      0.0063: real time      0.0072
    --------------------------------------------
      LOOP:  cpu time      1.2611: real time      1.2846

 eigenvalue-minimisations  :  2592
 total energy-change (2. order) : 0.5172121E+01  (-0.2603576E+00)
 number of electron     256.0000001 magnetization 
 augmentation part      -14.8313512 magnetization 

 Broyden mixing:
  rms(total) = 0.17194E+01    rms(broyden)= 0.17194E+01
  rms(prec ) = 0.18846E+01
  weight for this iteration     100.00

 eigenvalues of (default mixing * dielectric matrix)
  average eigenvalue GAMMA=   2.5052
  2.5052

 Free energy of the ion-electron system (eV)
  ---------------------------------------------------
  alpha Z        PSCENC =       108.92692438
  Ewald energy   TEWEN  =     -7342.72139500
  -Hartree energ DENC   =      -393.23309623
  -exchange      EXHF   =         0.00000000
  -V(xc)+E(xc)   XCENC  =      -549.78846824
  PAW double counting   =     12492.14728305   -11389.08382519
  entropy T*S    EENTRO =         0.01015119
  eigenvalues    EBANDS =       139.26736658
  atomic energy  EATOM  =      6564.79586099
  Solvation  Ediel_sol  =         0.00000000
  ---------------------------------------------------
  free energy    TOTEN  =      -369.67919847 eV

  energy without entropy =     -369.68934966  energy(sigma->0) =     -369.68258220


--------------------------------------------------------------------------------------------------------




--------------------------------------- Iteration      1(   7)  ---------------------------------------


    POTLOK:  cpu time      0.0783: real time      0.0941
    SETDIJ:  cpu time      0.0699: real time      0.0700
    EDDIAG:  cpu time      0.1333: real time      0.1340
  RMM-DIIS:  cpu time      0.7015: real time      0.7031
    ORTHCH:  cpu time      0.0213: real time      0.0214
       DOS:  cpu time      0.0013: real time      0.0013
    CHARGE:  cpu time      0.2452: real time      0.2458
    MIXING:  cpu time      0.0084: real time      0.0084
    --------------------------------------------
      LOOP:  cpu time      1.2591: real time      1.2781

 eigenvalue-minimisations  :  2635
 total energy-change (2. order) : 0.2349509E+01  (-0.6661216E+00)
 number of electron     256.0000001 magnetization 
 augmentation part      -14.6018845 magnetization 

 Broyden mixing:
  rms(total) = 0.97122E-01    rms(broyden)= 0.97122E-01
  rms(prec ) = 0.12210E+00
  weight for this iteration     100.00

 eigenvalues of (default mixing * dielectric matrix)
  average eigenvalue GAMMA=   2.2776
  2.2776  2.2776

 Free energy of the ion-electron system (eV)
  ---------------------------------------------------
  alpha Z        PSCENC =       108.92692438
  Ewald energy   TEWEN  =     -7342.72139500
  -Hartree energ DENC   =      -470.57112478
  -exchange      EXHF   =         0.00000000
  -V(xc)+E(xc)   XCENC  =      -537.00233124
  PAW double counting   =     29030.63355460   -27932.25140481
  entropy T*S    EENTRO =         0.02931395
  eigenvalues    EBANDS =       210.83091287
  atomic energy  EATOM  =      6564.79586099
  Solvation  Ediel_sol  =         0.00000000
  ---------------------------------------------------
  free energy    TOTEN  =      -367.32968903 eV

  energy without entropy =     -367.35900299  energy(sigma->0) =     -367.33946035


--------------------------------------------------------------------------------------------------------




--------------------------------------- Iteration      1(   8)  ---------------------------------------


    POTLOK:  cpu time      0.0871: real time      0.0890
    SETDIJ:  cpu time      0.0777: real time      0.0779
    EDDIAG:  cpu time      0.1346: real time      0.1382
  RMM-DIIS:  cpu time      0.7060: real time      0.7622
    ORTHCH:  cpu time      0.0208: real time      0.0209
       DOS:  cpu time      0.0019: real time      0.0020
    CHARGE:  cpu time      0.2452: real time      0.2461
    MIXING:  cpu time      0.0075: real time      0.0075
    --------------------------------------------
      LOOP:  cpu time      1.2808: real time      1.3437

 eigenvalue-minimisations  :  2633
 total energy-change (2. order) :-0.4483138E-01  (-0.6611047E-01)
 number of electron     256.0000001 magnetization 
 augmentation part      -14.6535887 magnetization 

 Broyden mixing:
  rms(total) = 0.50025E-01    rms(broyden)= 0.50025E-01
  rms(prec ) = 0.53333E-01
  weight for this iteration     100.00

 eigenvalues of (default mixing * dielectric matrix)
  average eigenvalue GAMMA=   2.1596
  2.5561  1.9613  1.9613

 Free energy of the ion-electron system (eV)
  ---------------------------------------------------
  alpha Z        PSCENC =       108.92692438
  Ewald energy   TEWEN  =     -7342.72139500
  -Hartree energ DENC   =      -463.23421008
  -exchange      EXHF   =         0.00000000
  -V(xc)+E(xc)   XCENC  =      -537.59808620
  PAW double counting   =     28662.49459747   -27563.21051840
  entropy T*S    EENTRO =         0.02909556
  eigenvalues    EBANDS =       203.14321087
  atomic energy  EATOM  =      6564.79586099
  Solvation  Ediel_sol  =         0.00000000
  ---------------------------------------------------
  free energy    TOTEN  =      -367.37452041 eV

  energy without entropy =     -367.40361597  energy(sigma->0) =     -367.38421893


--------------------------------------------------------------------------------------------------------




--------------------------------------- Iteration      1(   9)  ---------------------------------------


    POTLOK:  cpu time      0.0736: real time      0.0917
    SETDIJ:  cpu time      0.0731: real time      0.0736
    EDDIAG:  cpu time      0.1363: real time      0.1397
  RMM-DIIS:  cpu time      0.7095: real time      0.7116
    ORTHCH:  cpu time      0.0208: real time      0.0208
       DOS:  cpu time      0.0015: real time      0.0015
    CHARGE:  cpu time      0.2430: real time      0.2444
    MIXING:  cpu time      0.0072: real time      0.0072
    --------------------------------------------
      LOOP:  cpu time      1.2650: real time      1.2906

 eigenvalue-minimisations  :  2663
 total energy-change (2. order) :-0.1960049E-01  (-0.1816505E-01)
 number of electron     256.0000001 magnetization 
 augmentation part      -14.6430291 magnetization 

 Broyden mixing:
  rms(total) = 0.57509E-01    rms(broyden)= 0.57509E-01
  rms(prec ) = 0.64213E-01
  weight for this iteration     100.00

 eigenvalues of (default mixing * dielectric matrix)
  average eigenvalue GAMMA=   1.8636
  2.5497  2.2992  2.2992  0.3064

 Free energy of the ion-electron system (eV)
  ---------------------------------------------------
  alpha Z        PSCENC =       108.92692438
  Ewald energy   TEWEN  =     -7342.72139500
  -Hartree energ DENC   =      -465.92393360
  -exchange      EXHF   =         0.00000000
  -V(xc)+E(xc)   XCENC  =      -537.22758495
  PAW double counting   =     29005.48755950   -27906.42110469
  entropy T*S    EENTRO =         0.02931469
  eigenvalues    EBANDS =       205.66023778
  atomic energy  EATOM  =      6564.79586099
  Solvation  Ediel_sol  =         0.00000000
  ---------------------------------------------------
  free energy    TOTEN  =      -367.39412090 eV

  energy without entropy =     -367.42343559  energy(sigma->0) =     -367.40389247


--------------------------------------------------------------------------------------------------------




--------------------------------------- Iteration      1(  10)  ---------------------------------------


    POTLOK:  cpu time      0.0757: real time      0.0904
    SETDIJ:  cpu time      0.0734: real time      0.0739
    EDDIAG:  cpu time      0.1348: real time      0.1352
  RMM-DIIS:  cpu time      0.7291: real time      0.7316
    ORTHCH:  cpu time      0.0215: real time      0.0216
       DOS:  cpu time      0.0012: real time      0.0012
    CHARGE:  cpu time      0.2455: real time      0.2466
    MIXING:  cpu time      0.0055: real time      0.0055
    --------------------------------------------
      LOOP:  cpu time      1.2866: real time      1.3059

 eigenvalue-minimisations  :  2745
 total energy-change (2. order) :-0.3486955E-02  (-0.3226465E-02)
 number of electron     256.0000001 magnetization 
 augmentation part      -14.6493183 magnetization 

 Broyden mixing:
  rms(total) = 0.76209E-01    rms(broyden)= 0.76209E-01
  rms(prec ) = 0.82217E-01
  weight for this iteration     100.00

 eigenvalues of (default mixing * dielectric matrix)
  average eigenvalue GAMMA=   1.5749
  2.6613  2.0805  2.0805  0.5261  0.5261

 Free energy of the ion-electron system (eV)
  ---------------------------------------------------
  alpha Z        PSCENC =       108.92692438
  Ewald energy   TEWEN  =     -7342.72139500
  -Hartree energ DENC   =      -466.03920052
  -exchange      EXHF   =         0.00000000
  -V(xc)+E(xc)   XCENC  =      -537.21423819
  PAW double counting   =     29033.06934444   -27934.00743217
  entropy T*S    EENTRO =         0.02932713
  eigenvalues    EBANDS =       205.76320109
  atomic energy  EATOM  =      6564.79586099
  Solvation  Ediel_sol  =         0.00000000
  ---------------------------------------------------
  free energy    TOTEN  =      -367.39760786 eV

  energy without entropy =     -367.42693499  energy(sigma->0) =     -367.40738357


--------------------------------------------------------------------------------------------------------




--------------------------------------- Iteration      1(  11)  ---------------------------------------


    POTLOK:  cpu time      0.0744: real time      0.0911
    SETDIJ:  cpu time      0.0736: real time      0.0738
    EDDIAG:  cpu time      0.1334: real time      0.1337
  RMM-DIIS:  cpu time      0.6905: real time      0.6925
    ORTHCH:  cpu time      0.0213: real time      0.0213
       DOS:  cpu time      0.0015: real time      0.0015
    CHARGE:  cpu time      0.2438: real time      0.2444
    MIXING:  cpu time      0.0064: real time      0.0064
    --------------------------------------------
      LOOP:  cpu time      1.2448: real time      1.2646

 eigenvalue-minimisations  :  2592
 total energy-change (2. order) : 0.2511253E-02  (-0.1110755E-02)
 number of electron     256.0000001 magnetization 
 augmentation part      -14.6624697 magnetization 

 Broyden mixing:
  rms(total) = 0.65300E-01    rms(broyden)= 0.65300E-01
  rms(prec ) = 0.65889E-01
  weight for this iteration     100.00

 eigenvalues of (default mixing * dielectric matrix)
  average eigenvalue GAMMA=   1.4302
  2.5630  2.5630  1.2093  0.9705  0.9705  0.3047

 Free energy of the ion-electron system (eV)
  ---------------------------------------------------
  alpha Z        PSCENC =       108.92692438
  Ewald energy   TEWEN  =     -7342.72139500
  -Hartree energ DENC   =      -463.80183711
  -exchange      EXHF   =         0.00000000
  -V(xc)+E(xc)   XCENC  =      -537.36510728
  PAW double counting   =     28966.51593434   -27867.21820577
  entropy T*S    EENTRO =         0.02898187
  eigenvalues    EBANDS =       203.44374697
  atomic energy  EATOM  =      6564.79586099
  Solvation  Ediel_sol  =         0.00000000
  ---------------------------------------------------
  free energy    TOTEN  =      -367.39509661 eV

  energy without entropy =     -367.42407848  energy(sigma->0) =     -367.40475723


--------------------------------------------------------------------------------------------------------




--------------------------------------- Iteration      1(  12)  ---------------------------------------


    POTLOK:  cpu time      0.0748: real time      0.0906
    SETDIJ:  cpu time      0.0735: real time      0.0737
    EDDIAG:  cpu time      0.1329: real time      0.1333
  RMM-DIIS:  cpu time      0.6862: real time      0.6880
    ORTHCH:  cpu time      0.0214: real time      0.0214
       DOS:  cpu time      0.0013: real time      0.0013
    CHARGE:  cpu time      0.2446: real time      0.2452
    MIXING:  cpu time      0.0070: real time      0.0070
    --------------------------------------------
      LOOP:  cpu time      1.2417: real time      1.2604

 eigenvalue-minimisations  :  2604
 total energy-change (2. order) :-0.1235116E-03  (-0.1739188E-03)
 number of electron     256.0000001 magnetization 
 augmentation part      -14.6659838 magnetization 

 Broyden mixing:
  rms(total) = 0.64689E-01    rms(broyden)= 0.64689E-01
  rms(prec ) = 0.65065E-01
  weight for this iteration     100.00

 eigenvalues of (default mixing * dielectric matrix)
  average eigenvalue GAMMA=   1.3418
  2.5670  2.5670  1.3923  0.9486  0.9486  0.3710  0.5979

 Free energy of the ion-electron system (eV)
  ---------------------------------------------------
  alpha Z        PSCENC =       108.92692438
  Ewald energy   TEWEN  =     -7342.72139500
  -Hartree energ DENC   =      -463.58696272
  -exchange      EXHF   =         0.00000000
  -V(xc)+E(xc)   XCENC  =      -537.39973858
  PAW double counting   =     28885.77717478   -27786.48812088
  entropy T*S    EENTRO =         0.02895905
  eigenvalues    EBANDS =       203.27207787
  atomic energy  EATOM  =      6564.79586099
  Solvation  Ediel_sol  =         0.00000000
  ---------------------------------------------------
  free energy    TOTEN  =      -367.39522012 eV

  energy without entropy =     -367.42417917  energy(sigma->0) =     -367.40487313


--------------------------------------------------------------------------------------------------------




--------------------------------------- Iteration      1(  13)  ---------------------------------------


    POTLOK:  cpu time      0.0748: real time      0.0915
    SETDIJ:  cpu time      0.0737: real time      0.0739
    EDDIAG:  cpu time      0.1319: real time      0.1340
  RMM-DIIS:  cpu time      0.7365: real time      0.7380
    ORTHCH:  cpu time      0.0213: real time      0.0214
       DOS:  cpu time      0.0012: real time      0.0012
    CHARGE:  cpu time      0.2437: real time      0.2445
    MIXING:  cpu time      0.0064: real time      0.0064
    --------------------------------------------
      LOOP:  cpu time      1.2896: real time      1.3109

 eigenvalue-minimisations  :  2775
 total energy-change (2. order) :-0.5434241E-04  (-0.3337128E-04)
 number of electron     256.0000001 magnetization 
 augmentation part      -14.6663641 magnetization 

 Broyden mixing:
  rms(total) = 0.73268E-01    rms(broyden)= 0.73268E-01
  rms(prec ) = 0.73638E-01
  weight for this iteration     100.00

 eigenvalues of (default mixing * dielectric matrix)
  average eigenvalue GAMMA=   1.5873
  2.6803  2.6803  2.4594  1.8656  0.9951  0.8058  0.8058  0.4065

 Free energy of the ion-electron system (eV)
  ---------------------------------------------------
  alpha Z        PSCENC =       108.92692438
  Ewald energy   TEWEN  =     -7342.72139500
  -Hartree energ DENC   =      -463.64341579
  -exchange      EXHF   =         0.00000000
  -V(xc)+E(xc)   XCENC  =      -537.38841166
  PAW double counting   =     28942.01410048   -27842.72348158
  entropy T*S    EENTRO =         0.02896384
  eigenvalues    EBANDS =       203.31557988
  atomic energy  EATOM  =      6564.79586099
  Solvation  Ediel_sol  =         0.00000000
  ---------------------------------------------------
  free energy    TOTEN  =      -367.39527446 eV

  energy without entropy =     -367.42423830  energy(sigma->0) =     -367.40492907


--------------------------------------------------------------------------------------------------------




--------------------------------------- Iteration      1(  14)  ---------------------------------------


    POTLOK:  cpu time      0.0766: real time      0.0897
    SETDIJ:  cpu time      0.0738: real time      0.0739
    EDDIAG:  cpu time      0.1320: real time      0.1323
  RMM-DIIS:  cpu time      0.6899: real time      0.6913
    ORTHCH:  cpu time      0.0207: real time      0.0207
       DOS:  cpu time      0.0015: real time      0.0015
    CHARGE:  cpu time      0.2448: real time      0.2456
    MIXING:  cpu time      0.0061: real time      0.0061
    --------------------------------------------
      LOOP:  cpu time      1.2454: real time      1.2612

 eigenvalue-minimisations  :  2598
 total energy-change (2. order) :-0.2516062E-04  (-0.9154807E-05)
 number of electron     256.0000001 magnetization 
 augmentation part      -14.6668484 magnetization 

 Broyden mixing:
  rms(total) = 0.38010E-01    rms(broyden)= 0.38010E-01
  rms(prec ) = 0.38340E-01
  weight for this iteration     100.00

 eigenvalues of (default mixing * dielectric matrix)
  average eigenvalue GAMMA=   1.4442
  2.5868  2.5868  2.4387  1.6837  0.9814  0.9814  0.8179  0.4607  0.4607

 Free energy of the ion-electron system (eV)
  ---------------------------------------------------
  alpha Z        PSCENC =       108.92692438
  Ewald energy   TEWEN  =     -7342.72139500
  -Hartree energ DENC   =      -463.42163638
  -exchange      EXHF   =         0.00000000
  -V(xc)+E(xc)   XCENC  =      -537.42889827
  PAW double counting   =     28683.10220133   -27583.83844937
  entropy T*S    EENTRO =         0.02893760
  eigenvalues    EBANDS =       203.16115510
  atomic energy  EATOM  =      6564.79586099
  Solvation  Ediel_sol  =         0.00000000
  ---------------------------------------------------
  free energy    TOTEN  =      -367.39529962 eV

  energy without entropy =     -367.42423722  energy(sigma->0) =     -367.40494549


--------------------------------------------------------------------------------------------------------




--------------------------------------- Iteration      1(  15)  ---------------------------------------


    POTLOK:  cpu time      0.0755: real time      0.0907
    SETDIJ:  cpu time      0.0737: real time      0.0739
    EDDIAG:  cpu time      0.1317: real time      0.1320
  RMM-DIIS:  cpu time      0.7078: real time      0.7091
    ORTHCH:  cpu time      0.0205: real time      0.0206
       DOS:  cpu time      0.0016: real time      0.0016
    CHARGE:  cpu time      0.2436: real time      0.2444
    MIXING:  cpu time      0.0097: real time      0.0097
    --------------------------------------------
      LOOP:  cpu time      1.2642: real time      1.2820

 eigenvalue-minimisations  :  2641
 total energy-change (2. order) :-0.7695382E-04  (-0.3557866E-05)
 number of electron     256.0000001 magnetization 
 augmentation part      -14.6671192 magnetization 

 Broyden mixing:
  rms(total) = 0.31365E-01    rms(broyden)= 0.31365E-01
  rms(prec ) = 0.31616E-01
  weight for this iteration     100.00

 eigenvalues of (default mixing * dielectric matrix)
  average eigenvalue GAMMA=   1.4151
  2.6565  2.6565  2.3723  1.5460  0.9227  0.9227  0.9126  0.9126  0.8377  0.4112

 Free energy of the ion-electron system (eV)
  ---------------------------------------------------
  alpha Z        PSCENC =       108.92692438
  Ewald energy   TEWEN  =     -7342.72139500
  -Hartree energ DENC   =      -463.39622515
  -exchange      EXHF   =         0.00000000
  -V(xc)+E(xc)   XCENC  =      -537.42876855
  PAW double counting   =     28658.68428404   -27559.41682081
  entropy T*S    EENTRO =         0.02892055
  eigenvalues    EBANDS =       203.13184298
  atomic energy  EATOM  =      6564.79586099
  Solvation  Ediel_sol  =         0.00000000
  ---------------------------------------------------
  free energy    TOTEN  =      -367.39537657 eV

  energy without entropy =     -367.42429712  energy(sigma->0) =     -367.40501676


--------------------------------------------------------------------------------------------------------




--------------------------------------- Iteration      1(  16)  ---------------------------------------


    POTLOK:  cpu time      0.0752: real time      0.0928
    SETDIJ:  cpu time      0.0734: real time      0.0735
    EDDIAG:  cpu time      0.1329: real time      0.1334
  RMM-DIIS:  cpu time      0.6976: real time      0.7327
    ORTHCH:  cpu time      0.0215: real time      0.0222
       DOS:  cpu time      0.0013: real time      0.0013
    CHARGE:  cpu time      0.2443: real time      0.2473
    MIXING:  cpu time      0.0101: real time      0.0101
    --------------------------------------------
      LOOP:  cpu time      1.2563: real time      1.3134

 eigenvalue-minimisations  :  2592
 total energy-change (2. order) :-0.5410501E-04  (-0.2759990E-05)
 number of electron     256.0000001 magnetization 
 augmentation part      -14.6666312 magnetization 

 Broyden mixing:
  rms(total) = 0.19685E-01    rms(broyden)= 0.19685E-01
  rms(prec ) = 0.19809E-01
  weight for this iteration     100.00

 eigenvalues of (default mixing * dielectric matrix)
  average eigenvalue GAMMA=   1.3893
  2.6868  2.6868  2.3069  1.7231  1.0944  1.0944  0.9371  0.9371  0.7953  0.4163
  0.6040

 Free energy of the ion-electron system (eV)
  ---------------------------------------------------
  alpha Z        PSCENC =       108.92692438
  Ewald energy   TEWEN  =     -7342.72139500
  -Hartree energ DENC   =      -463.52908830
  -exchange      EXHF   =         0.00000000
  -V(xc)+E(xc)   XCENC  =      -537.41869415
  PAW double counting   =     28616.33603195   -27517.07186695
  entropy T*S    EENTRO =         0.02892337
  eigenvalues    EBANDS =       203.25787302
  atomic energy  EATOM  =      6564.79586099
  Solvation  Ediel_sol  =         0.00000000
  ---------------------------------------------------
  free energy    TOTEN  =      -367.39543068 eV

  energy without entropy =     -367.42435405  energy(sigma->0) =     -367.40507180


--------------------------------------------------------------------------------------------------------




--------------------------------------- Iteration      1(  17)  ---------------------------------------


    POTLOK:  cpu time      0.0743: real time      0.0902
    SETDIJ:  cpu time      0.0733: real time      0.0735
    EDDIAG:  cpu time      0.1327: real time      0.1331
  RMM-DIIS:  cpu time      0.6967: real time      0.6984
    ORTHCH:  cpu time      0.0208: real time      0.0208
       DOS:  cpu time      0.0020: real time      0.0023
    CHARGE:  cpu time      0.2448: real time      0.2456
    MIXING:  cpu time      0.0095: real time      0.0095
    --------------------------------------------
      LOOP:  cpu time      1.2542: real time      1.2735

 eigenvalue-minimisations  :  2592
 total energy-change (2. order) :-0.1913133E-04  (-0.1464382E-05)
 number of electron     256.0000001 magnetization 
 augmentation part      -14.6662402 magnetization 

 Broyden mixing:
  rms(total) = 0.71478E-02    rms(broyden)= 0.71478E-02
  rms(prec ) = 0.72015E-02
  weight for this iteration     100.00

 eigenvalues of (default mixing * dielectric matrix)
  average eigenvalue GAMMA=   1.5845
  2.2346  2.2346  2.6754  2.6754  2.4279  1.9272  0.9951  0.9951  0.8703  0.7823
  0.7823  0.4138

 Free energy of the ion-electron system (eV)
  ---------------------------------------------------
  alpha Z        PSCENC =       108.92692438
  Ewald energy   TEWEN  =     -7342.72139500
  -Hartree energ DENC   =      -463.59002470
  -exchange      EXHF   =         0.00000000
  -V(xc)+E(xc)   XCENC  =      -537.41926584
  PAW double counting   =     28548.91458319   -27449.65241767
  entropy T*S    EENTRO =         0.02892206
  eigenvalues    EBANDS =       203.32136279
  atomic energy  EATOM  =      6564.79586099
  Solvation  Ediel_sol  =         0.00000000
  ---------------------------------------------------
  free energy    TOTEN  =      -367.39544981 eV

  energy without entropy =     -367.42437187  energy(sigma->0) =     -367.40509050


--------------------------------------------------------------------------------------------------------




--------------------------------------- Iteration      1(  18)  ---------------------------------------


    POTLOK:  cpu time      0.0746: real time      0.0905
    SETDIJ:  cpu time      0.0740: real time      0.0742
    EDDIAG:  cpu time      0.1322: real time      0.1329
  RMM-DIIS:  cpu time      0.5387: real time      0.5399
    ORTHCH:  cpu time      0.0213: real time      0.0214
       DOS:  cpu time      0.0013: real time      0.0013
    CHARGE:  cpu time      0.2446: real time      0.2457
    MIXING:  cpu time      0.0070: real time      0.0070
    --------------------------------------------
      LOOP:  cpu time      1.0938: real time      1.1127

 eigenvalue-minimisations  :  1937
 total energy-change (2. order) :-0.3449306E-05  (-0.3933970E-06)
 number of electron     256.0000001 magnetization 
 augmentation part      -14.6660056 magnetization 

 Broyden mixing:
  rms(total) = 0.15639E-02    rms(broyden)= 0.15638E-02
  rms(prec ) = 0.16040E-02
  weight for this iteration     100.00

 eigenvalues of (default mixing * dielectric matrix)
  average eigenvalue GAMMA=   1.6952
  3.1020  3.1020  2.6902  2.6902  2.4029  1.7029  1.2904  1.2904  0.8150  0.8150
  0.8615  0.8615  0.4139

 Free energy of the ion-electron system (eV)
  ---------------------------------------------------
  alpha Z        PSCENC =       108.92692438
  Ewald energy   TEWEN  =     -7342.72139500
  -Hartree energ DENC   =      -463.61419735
  -exchange      EXHF   =         0.00000000
  -V(xc)+E(xc)   XCENC  =      -537.42009257
  PAW double counting   =     28516.52815676   -27417.26666005
  entropy T*S    EENTRO =         0.02892122
  eigenvalues    EBANDS =       203.34702836
  atomic energy  EATOM  =      6564.79586099
  Solvation  Ediel_sol  =         0.00000000
  ---------------------------------------------------
  free energy    TOTEN  =      -367.39545326 eV

  energy without entropy =     -367.42437448  energy(sigma->0) =     -367.40509367


--------------------------------------------------------------------------------------------------------




--------------------------------------- Iteration      1(  19)  ---------------------------------------


    POTLOK:  cpu time      0.0757: real time      0.0902
    SETDIJ:  cpu time      0.0740: real time      0.0741
    EDDIAG:  cpu time      0.1333: real time      0.1336
  RMM-DIIS:  cpu time      0.4488: real time      0.4498
    ORTHCH:  cpu time      0.0206: real time      0.0206
       DOS:  cpu time      0.0016: real time      0.0016
    --------------------------------------------
      LOOP:  cpu time      0.7539: real time      0.7699

 eigenvalue-minimisations  :  1564
 total energy-change (2. order) :-0.7939634E-06  (-0.1138680E-06)
 number of electron     256.0000001 magnetization 
 augmentation part      -14.6660056 magnetization 

 Free energy of the ion-electron system (eV)
  ---------------------------------------------------
  alpha Z        PSCENC =       108.92692438
  Ewald energy   TEWEN  =     -7342.72139500
  -Hartree energ DENC   =      -463.63850595
  -exchange      EXHF   =         0.00000000
  -V(xc)+E(xc)   XCENC  =      -537.41864452
  PAW double counting   =     28508.24095261   -27408.97955590
  entropy T*S    EENTRO =         0.02892157
  eigenvalues    EBANDS =       203.36998777
  atomic energy  EATOM  =      6564.79586099
  Solvation  Ediel_sol  =         0.00000000
  ---------------------------------------------------
  free energy    TOTEN  =      -367.39545405 eV

  energy without entropy =     -367.42437562  energy(sigma->0) =     -367.40509458


--------------------------------------------------------------------------------------------------------




 average (electrostatic) potential at core
  the test charge radii are     0.9892
  (the norm of the test charge is              1.0000)
       1 -82.8953       2 -82.8953       3 -82.8953       4 -82.8953       5 -82.8953
       6 -82.8953       7 -82.8953       8 -82.8953       9 -82.8953      10 -82.8953
      11 -82.8953      12 -82.8953      13 -82.8953      14 -82.8953      15 -82.8953
      16 -82.8953      17 -82.8953      18 -82.8953      19 -82.8953      20 -82.8953
      21 -82.8953      22 -82.8953      23 -82.8953      24 -82.8953      25 -82.8953
      26 -82.8953      27 -82.8953      28 -82.8953      29 -82.8953      30 -82.8953
      31 -82.8953      32 -82.8953      33 -82.8953      34 -82.8953      35 -82.8953
      36 -82.8953      37 -82.8953      38 -82.8953      39 -82.8953      40 -82.8953
      41 -82.8953      42 -82.8953      43 -82.8953      44 -82.8953      45 -82.8953
      46 -82.8953      47 -82.8953      48 -82.8953      49 -82.8953      50 -82.8953
      51 -82.8953      52 -82.8953      53 -82.8953      54 -82.8953      55 -82.8953
      56 -82.8953      57 -82.8953      58 -82.8953      59 -82.8953      60 -82.8953
      61 -82.8953      62 -82.8953      63 -82.8953      64 -82.8953
 
 
 
 E-fermi :   6.1996     XC(G=0):  -9.5993     alpha+bet :-12.1264

 val. band max:        5.9564294317   @ k =   0.0000   0.0000   0.0000
 cond. band min:       6.3502885721   @ k =   0.0000   0.0000   0.5000
 fundamental gap:      0.3938591404
 Fermi energy:         6.1995614875

 k-point     1 :       0.0000    0.0000    0.0000
  band No.  band energies     occupation 
      1      -6.1593      2.00000
      2      -5.0799      2.00000
      3      -5.0799      2.00000
      4      -5.0526      2.00000
      5      -5.0526      2.00000
      6      -5.0522      2.00000
      7      -5.0522      2.00000
      8      -4.1314      2.00000
      9      -4.1314      2.00000
     10      -4.0881      2.00000
     11      -4.0881      2.00000
     12      -4.0881      2.00000
     13      -4.0881      2.00000
     14      -4.0687      2.00000
     15      -4.0687      2.00000
     16      -4.0687      2.00000
     17      -4.0687      2.00000
     18      -4.0437      2.00000
     19      -4.0437      2.00000
     20      -3.8276      2.00000
     21      -3.8276      2.00000
     22      -3.7272      2.00000
     23      -3.7272      2.00000
     24      -2.0131      2.00000
     25      -2.0131      2.00000
     26      -1.9858      2.00000
     27      -1.9226      2.00000
     28      -1.9226      2.00000
     29      -1.8613      2.00000
     30      -1.8566      2.00000
     31      -1.8566      2.00000
     32      -1.8240      2.00000
     33      -1.8240      2.00000
     34      -1.7880      2.00000
     35      -1.7880      2.00000
     36      -1.7880      2.00000
     37      -1.7880      2.00000
     38      -1.7193      2.00000
     39      -1.7193      2.00000
     40      -1.6878      2.00000
     41      -1.6878      2.00000
     42      -1.1691      2.00000
     43      -1.1691      2.00000
     44      -1.1459      2.00000
     45      -1.1459      2.00000
     46       0.3656      2.00000
     47       0.3656      2.00000
     48       0.3656      2.00000
     49       0.3656      2.00000
     50       0.3886      2.00000
     51       0.3886      2.00000
     52       0.4188      2.00000
     53       0.4188      2.00000
     54       0.4188      2.00000
     55       0.4188      2.00000
     56       0.4471      2.00000
     57       0.4471      2.00000
     58       1.9535      2.00000
     59       1.9535      2.00000
     60       1.9546      2.00000
     61       1.9546      2.00000
     62       1.9547      2.00000
     63       1.9547      2.00000
     64       1.9547      2.00000
     65       1.9547      2.00000
     66       1.9596      2.00000
     67       1.9596      2.00000
     68       1.9615      2.00000
     69       1.9615      2.00000
     70       2.0089      2.00000
     71       2.0089      2.00000
     72       2.0089      2.00000
     73       2.0089      2.00000
     74       2.0749      2.00000
     75       2.0749      2.00000
     76       2.0919      2.00000
     77       2.0919      2.00000
     78       2.0919      2.00000
     79       2.0919      2.00000
     80       2.1080      2.00000
     81       2.1080      2.00000
     82       2.3273      2.00000
     83       2.3273      2.00000
     84       2.4328      2.00000
     85       2.4328      2.00000
     86       2.4360      2.00000
     87       2.4360      2.00000
     88       2.8928      2.00000
     89       2.9724      2.00000
     90       2.9724      2.00000
     91       3.0530      2.00000
     92       3.0876      2.00000
     93       3.0876      2.00000
     94       3.8851      2.00000
     95       3.8851      2.00000
     96       3.9384      2.00000
     97       3.9384      2.00000
     98       3.9722      2.00000
     99       3.9722      2.00000
    100       4.0280      2.00000
    101       4.0280      2.00000
    102       4.0449      2.00000
    103       4.0449      2.00000
    104       4.0451      2.00000
    105       4.0451      2.00000
    106       4.4895      2.00000
    107       4.4895      2.00000
    108       4.5256      2.00000
    109       4.5256      2.00000
    110       4.5256      2.00000
    111       4.5256      2.00000
    112       4.5637      2.00000
    113       4.5637      2.00000
    114       4.5950      2.00000
    115       4.5950      2.00000
    116       4.6469      2.00000
    117       4.6469      2.00000
    118       4.6469      2.00000
    119       4.6469      2.00000
    120       4.6661      2.00000
    121       4.6661      2.00000
    122       4.7383      2.00000
    123       4.7383      2.00000
    124       4.8128      2.00000
    125       4.8128      2.00000
    126       5.8439      2.03054
    127       5.9511      2.07082
    128       5.9564      2.07089
    129       6.3572      0.02619
    130       6.4414     -0.07084
    131       6.4414     -0.07084
    132       6.5280     -0.04225
    133       6.5609     -0.02837
    134       6.5609     -0.02836
    135       6.9000     -0.00001
    136       6.9000     -0.00001
    137       6.9001     -0.00001
    138       6.9001     -0.00001
    139       7.0187     -0.00000
    140       7.0187     -0.00000
    141       7.3412     -0.00000
    142       7.3412     -0.00000
    143       7.4896     -0.00000
    144       7.4896     -0.00000
    145       8.1911     -0.00000
    146       8.1914     -0.00000
    147       8.2397     -0.00000
    148       8.2399     -0.00000
    149       8.2401     -0.00000
    150       8.2407     -0.00000
    151       8.2939     -0.00000
    152       8.2954     -0.00000
    153       8.3314     -0.00000
    154       8.3800     -0.00000
    155       8.3802     -0.00000
    156       8.3805     -0.00000
    157       8.3825     -0.00000
    158       8.3996     -0.00000
    159       8.5764     -0.00000
    160       8.9489     -0.00000
    161       8.9680     -0.00000
    162       8.9823     -0.00000

 k-point     2 :       0.5000    0.0000    0.0000
  band No.  band energies     occupation 
      1      -5.8872      2.00000
      2      -5.8872      2.00000
      3      -4.8265      2.00000
      4      -4.8265      2.00000
      5      -4.8049      2.00000
      6      -4.8049      2.00000
      7      -4.8049      2.00000
      8      -4.8049      2.00000
      9      -4.7824      2.00000
     10      -4.7824      2.00000
     11      -3.9684      2.00000
     12      -3.9684      2.00000
     13      -3.9683      2.00000
     14      -3.9683      2.00000
     15      -3.9072      2.00000
     16      -3.9072      2.00000
     17      -3.9072      2.00000
     18      -3.9072      2.00000
     19      -3.7679      2.00000
     20      -3.7679      2.00000
     21      -3.0665      2.00000
     22      -3.0665      2.00000
     23      -3.0040      2.00000
     24      -3.0040      2.00000
     25      -3.0040      2.00000
     26      -3.0040      2.00000
     27      -2.9402      2.00000
     28      -2.9402      2.00000
     29      -1.9106      2.00000
     30      -1.9106      2.00000
     31      -1.8860      2.00000
     32      -1.8860      2.00000
     33      -1.8006      2.00000
     34      -1.8006      2.00000
     35      -1.7776      2.00000
     36      -1.7776      2.00000
     37      -0.7319      2.00000
     38      -0.7319      2.00000
     39      -0.6799      2.00000
     40      -0.6799      2.00000
     41      -0.6799      2.00000
     42      -0.6799      2.00000
     43      -0.6308      2.00000
     44      -0.6308      2.00000
     45      -0.5620      2.00000
     46      -0.5620      2.00000
     47      -0.5620      2.00000
     48      -0.5620      2.00000
     49      -0.5538      2.00000
     50      -0.5538      2.00000
     51      -0.5538      2.00000
     52      -0.5538      2.00000
     53       0.0742      2.00000
     54       0.0742      2.00000
     55       1.6019      2.00000
     56       1.6019      2.00000
     57       1.6038      2.00000
     58       1.6038      2.00000
     59       1.6038      2.00000
     60       1.6038      2.00000
     61       1.6059      2.00000
     62       1.6059      2.00000
     63       1.6071      2.00000
     64       1.6071      2.00000
     65       1.6233      2.00000
     66       1.6233      2.00000
     67       1.6233      2.00000
     68       1.6233      2.00000
     69       1.6429      2.00000
     70       1.6429      2.00000
     71       2.3553      2.00000
     72       2.3553      2.00000
     73       2.3868      2.00000
     74       2.3868      2.00000
     75       2.4133      2.00000
     76       2.4133      2.00000
     77       2.4458      2.00000
     78       2.4458      2.00000
     79       3.1100      2.00000
     80       3.1100      2.00000
     81       3.1401      2.00000
     82       3.1401      2.00000
     83       3.1401      2.00000
     84       3.1401      2.00000
     85       3.1655      2.00000
     86       3.1655      2.00000
     87       3.1927      2.00000
     88       3.1927      2.00000
     89       3.2166      2.00000
     90       3.2166      2.00000
     91       3.2166      2.00000
     92       3.2166      2.00000
     93       3.2395      2.00000
     94       3.2395      2.00000
     95       3.2994      2.00000
     96       3.2994      2.00000
     97       3.2994      2.00000
     98       3.2994      2.00000
     99       3.3315      2.00000
    100       3.3315      2.00000
    101       3.3318      2.00000
    102       3.3318      2.00000
    103       3.3741      2.00000
    104       3.3741      2.00000
[...]
 -0.000  -0.000   4.175   0.000  -0.000   7.778   0.000  -0.000
  0.001   0.001   0.000   4.175   0.000   0.000   7.778   0.000
 -0.000  -0.000  -0.000   0.000   4.175  -0.000   0.000   7.778
 -0.000  -0.000   7.778   0.000  -0.000  14.502   0.000  -0.000
  0.002   0.002   0.000   7.778   0.000   0.000  14.502   0.000
 -0.000  -0.000  -0.000   0.000   7.778  -0.000   0.000  14.502
 total augmentation occupancy for first ion, spin component:           1
  6.020  -2.330   0.000  -0.041   0.000  -0.000   0.015   0.000
 -2.330   1.011  -0.000   0.021   0.000   0.000  -0.007   0.000
  0.000   0.000   2.969   0.000  -0.008  -0.665  -0.000   0.000
 -0.041   0.021   0.000   2.970   0.000  -0.000  -0.665   0.000
  0.000   0.000  -0.008   0.000   2.997   0.000   0.000  -0.676
 -0.000   0.000  -0.665  -0.000   0.000   0.158   0.000   0.000
  0.015  -0.007  -0.000  -0.665   0.000   0.000   0.158   0.000
  0.000   0.000   0.000   0.000  -0.676   0.000   0.000   0.161


------------------------ aborting loop because EDIFF is reached ----------------------------------------


    CHARGE:  cpu time      0.2357: real time      0.2370
    FORLOC:  cpu time      0.0228: real time      0.0229
    FORNL :  cpu time      0.6842: real time      0.6874
    STRESS:  cpu time      2.1136: real time      2.1242
    FORCOR:  cpu time      0.0866: real time      0.0870
    FORHAR:  cpu time      0.0353: real time      0.0355
    MIXING:  cpu time      0.0669: real time      0.0671
    OFIELD:  cpu time      0.0000: real time      0.0001

  FORCE on cell =-STRESS in cart. coord.  units (eV):
  Direction    XX          YY          ZZ          XY          YZ          ZX
  --------------------------------------------------------------------------------------
  Alpha Z   108.92692   108.92692   108.92692
  Ewald   -2414.37329 -2464.46037 -2464.31518   -11.88544     0.00000     0.00000
  Hartree   160.07755   151.73359   151.61012    -6.56536    -0.00000    -0.00000
  E(xc)    -820.31826  -819.87227  -819.89047     0.11821    -0.00000    -0.00000
  Local    -964.82272  -903.88613  -904.06911    20.04898     0.00000     0.00000
  n-local  2496.01363  2488.50458  2488.82201    -1.24306    -0.00000     0.00000
  augment  -368.53518  -368.55684  -368.56254     0.57935     0.00000     0.00000
  Kinetic  1806.97247  1822.96049  1822.47182    -9.64094     0.00000     0.00000
  Fock        0.00000     0.00000     0.00000     0.00000     0.00000     0.00000
  -------------------------------------------------------------------------------------
  Total       3.94113    15.34997    14.99358    -8.58826     0.00000     0.00000
  in kB       4.98830    19.42849    18.97740   -10.87017     0.00000     0.00000
  external pressure =       14.46 kB  Pullay stress =        0.00 kB


 VOLUME and BASIS-vectors are now :
 -----------------------------------------------------------------------------
  energy-cutoff  :      400.00
  volume of cell :     1265.84
      direct lattice vectors                 reciprocal lattice vectors
    10.925595613  0.080731012  0.000000000     0.091533263 -0.000686500  0.000000000
     0.080731012 10.764133590  0.000000000    -0.000686500  0.092906263  0.000000000
     0.000000000  0.000000000 10.764133590     0.000000000  0.000000000  0.092901114

  length of vectors
    10.925893877 10.764436327 10.764133590     0.091535838  0.092908799  0.092901114


 FORCES acting on ions
    electron-ion (+dipol)            ewald-force                    non-local-force                 convergence-correction
 -----------------------------------------------------------------------------------------------
   0.211E-08 -.179E-09 -.127E+01   0.000E+00 0.355E-14 0.905E+00   0.318E-20 0.272E-20 0.362E+00   -.502E-13 0.560E-13 0.124E-04
   0.211E-08 -.179E-09 -.127E+01   0.977E-14 0.311E-14 0.905E+00   -.426E-21 -.926E-21 0.362E+00   -.974E-14 -.557E-13 0.124E-04
   0.211E-08 -.179E-09 -.127E+01   -.444E-14 0.178E-14 0.905E+00   -.226E-20 0.296E-20 0.362E+00   0.109E-13 -.622E-13 0.124E-04
   0.211E-08 -.179E-09 -.127E+01   0.977E-14 -.622E-14 0.905E+00   0.810E-21 0.353E-21 0.362E+00   -.702E-13 0.438E-13 0.124E-04
   0.211E-08 -.179E-09 -.127E+01   -.111E-14 -.133E-14 0.905E+00   0.518E-22 0.359E-20 0.362E+00   0.470E-13 0.320E-13 0.124E-04
   0.211E-08 -.179E-09 -.127E+01   0.138E-13 0.533E-14 0.905E+00   0.122E-20 -.108E-20 0.362E+00   0.991E-14 -.384E-13 0.124E-04
   0.211E-08 -.180E-09 -.127E+01   0.266E-14 -.173E-13 0.905E+00   0.412E-23 0.147E-20 0.362E+00   -.294E-14 -.310E-13 0.124E-04
   0.211E-08 -.180E-09 -.127E+01   0.107E-13 -.249E-13 0.905E+00   -.253E-20 0.378E-20 0.362E+00   0.645E-13 0.240E-13 0.124E-04
   -.607E-09 -.879E-10 0.127E+01   0.844E-14 -.622E-14 -.905E+00   -.228E-20 0.251E-21 -.362E+00   -.105E-13 -.700E-13 -.124E-04
   -.607E-09 -.879E-10 0.127E+01   0.160E-13 -.178E-14 -.905E+00   -.205E-20 -.253E-20 -.362E+00   0.624E-13 0.760E-13 -.124E-04
   -.607E-09 -.883E-10 0.127E+01   0.888E-14 -.142E-13 -.905E+00   0.317E-20 -.124E-20 -.362E+00   0.509E-13 0.788E-13 -.124E-04
   -.607E-09 -.882E-10 0.127E+01   0.711E-14 -.142E-13 -.905E+00   -.203E-20 0.156E-20 -.362E+00   0.740E-14 -.719E-13 -.124E-04
   -.607E-09 -.889E-10 0.127E+01   0.138E-13 -.533E-14 -.905E+00   0.249E-20 0.141E-20 -.362E+00   0.116E-13 -.129E-12 -.124E-04
   -.607E-09 -.871E-10 0.127E+01   0.124E-13 -.178E-14 -.905E+00   -.421E-20 0.579E-20 -.362E+00   -.582E-13 0.130E-12 -.124E-04
   -.607E-09 -.875E-10 0.127E+01   0.115E-13 -.138E-13 -.905E+00   -.376E-20 0.514E-22 -.362E+00   -.490E-13 0.123E-12 -.124E-04
   -.607E-09 -.874E-10 0.127E+01   0.888E-14 -.142E-13 -.905E+00   -.385E-21 -.354E-20 -.362E+00   -.141E-14 -.120E-12 -.124E-04
   0.211E-08 -.179E-09 -.127E+01   0.178E-14 -.155E-14 0.905E+00   0.197E-21 0.296E-20 0.362E+00   0.155E-13 -.242E-13 0.124E-04
   0.211E-08 -.179E-09 -.127E+01   -.164E-13 -.799E-14 0.905E+00   0.366E-20 -.300E-20 0.362E+00   -.646E-13 0.199E-13 0.124E-04
   0.211E-08 -.179E-09 -.127E+01   -.129E-13 -.422E-14 0.905E+00   0.634E-21 -.556E-20 0.362E+00   -.140E-13 0.129E-13 0.124E-04
   0.211E-08 -.179E-09 -.127E+01   -.133E-13 -.311E-14 0.905E+00   0.424E-21 0.833E-21 0.362E+00   -.405E-13 -.239E-13 0.124E-04
   0.211E-08 -.179E-09 -.127E+01   -.355E-14 -.151E-13 0.905E+00   0.209E-20 -.240E-20 0.362E+00   -.309E-13 0.272E-13 0.124E-04
   0.211E-08 -.179E-09 -.127E+01   -.711E-14 -.151E-13 0.905E+00   0.206E-20 -.119E-20 0.362E+00   0.850E-13 -.322E-13 0.124E-04
   0.211E-08 -.180E-09 -.127E+01   0.400E-14 -.799E-14 0.905E+00   -.779E-21 0.334E-20 0.362E+00   0.179E-13 -.267E-13 0.124E-04
   0.211E-08 -.179E-09 -.127E+01   -.142E-13 0.000E+00 0.905E+00   0.419E-20 -.392E-22 0.362E+00   0.375E-13 0.230E-13 0.124E-04
   -.607E-09 -.876E-10 0.127E+01   -.533E-14 -.558E-14 -.905E+00   0.464E-21 -.117E-20 -.362E+00   -.106E-12 0.710E-13 -.124E-04
   -.607E-09 -.884E-10 0.127E+01   -.178E-14 -.555E-14 -.905E+00   -.155E-20 -.634E-20 -.362E+00   0.149E-12 -.545E-13 -.124E-04
   -.607E-09 -.881E-10 0.127E+01   -.533E-14 0.657E-14 -.905E+00   0.254E-20 -.244E-20 -.362E+00   -.320E-13 -.531E-13 -.124E-04
   -.607E-09 -.881E-10 0.127E+01   0.888E-14 0.146E-15 -.905E+00   -.106E-20 0.151E-20 -.362E+00   0.821E-13 0.660E-13 -.124E-04
   -.607E-09 -.876E-10 0.127E+01   -.711E-14 -.867E-14 -.905E+00   0.845E-21 -.800E-21 -.362E+00   0.948E-13 0.578E-13 -.124E-04
   -.607E-09 -.876E-10 0.127E+01   -.142E-13 -.468E-14 -.905E+00   -.339E-20 -.189E-20 -.362E+00   -.138E-12 -.391E-13 -.124E-04
   -.607E-09 -.880E-10 0.127E+01   -.178E-14 0.745E-14 -.905E+00   -.120E-20 0.150E-20 -.362E+00   0.305E-13 -.466E-13 -.124E-04
   -.607E-09 -.867E-10 0.127E+01   -.533E-14 0.784E-15 -.905E+00   -.175E-20 -.316E-20 -.362E+00   -.755E-13 0.486E-13 -.124E-04
   0.211E-08 -.179E-09 -.127E+01   0.422E-14 0.238E-13 0.905E+00   0.372E-20 0.391E-20 0.362E+00   -.687E-13 0.615E-13 0.124E-04
   0.211E-08 -.179E-09 -.127E+01   0.266E-14 0.155E-13 0.905E+00   -.156E-20 0.143E-20 0.362E+00   0.925E-13 -.642E-13 0.124E-04
   0.211E-08 -.179E-09 -.127E+01   -.977E-14 0.222E-15 0.905E+00   -.148E-20 0.548E-21 0.362E+00   -.297E-13 -.709E-13 0.124E-04
   0.211E-08 -.179E-09 -.127E+01   0.799E-14 -.888E-15 0.905E+00   -.146E-20 0.811E-21 0.362E+00   0.502E-13 0.600E-13 0.124E-04
   0.211E-08 -.179E-09 -.127E+01   0.910E-14 0.129E-13 0.905E+00   -.199E-20 0.739E-21 0.362E+00   0.851E-13 0.226E-13 0.124E-04
   0.211E-08 -.179E-09 -.127E+01   0.107E-13 0.302E-13 0.905E+00   -.402E-21 0.243E-20 0.362E+00   -.102E-12 -.309E-13 0.124E-04
   0.211E-08 -.178E-09 -.127E+01   0.577E-14 0.142E-13 0.905E+00   0.227E-20 0.540E-21 0.362E+00   0.343E-13 -.303E-13 0.124E-04
   0.211E-08 -.179E-09 -.127E+01   0.711E-14 0.142E-13 0.905E+00   -.294E-20 0.378E-20 0.362E+00   -.474E-13 0.193E-13 0.124E-04
   -.607E-09 -.880E-10 0.127E+01   0.142E-13 0.533E-14 -.905E+00   0.122E-20 0.155E-20 -.362E+00   -.718E-13 0.218E-13 -.124E-04
   -.607E-09 -.881E-10 0.127E+01   0.261E-14 0.178E-14 -.905E+00   0.132E-21 -.266E-22 -.362E+00   0.404E-13 -.205E-13 -.124E-04
   -.607E-09 -.881E-10 0.127E+01   0.142E-13 -.124E-13 -.905E+00   -.105E-20 0.665E-21 -.362E+00   -.786E-13 -.127E-13 -.124E-04
   -.607E-09 -.881E-10 0.127E+01   0.106E-13 -.533E-14 -.905E+00   0.492E-20 0.253E-20 -.362E+00   0.506E-13 0.248E-13 -.124E-04
   -.607E-09 -.885E-10 0.127E+01   0.420E-14 0.355E-14 -.905E+00   -.863E-21 -.131E-20 -.362E+00   0.778E-13 0.860E-13 -.124E-04
   -.607E-09 -.886E-10 0.127E+01   -.645E-14 0.355E-14 -.905E+00   0.418E-20 0.359E-20 -.362E+00   -.389E-13 -.828E-13 -.124E-04
   -.607E-09 -.873E-10 0.127E+01   0.731E-14 0.711E-14 -.905E+00   0.871E-21 0.214E-20 -.362E+00   0.912E-13 -.896E-13 -.124E-04
   -.607E-09 -.874E-10 0.127E+01   -.290E-14 0.711E-14 -.905E+00   0.712E-21 0.500E-21 -.362E+00   -.614E-13 0.933E-13 -.124E-04
   0.211E-08 -.179E-09 -.127E+01   -.444E-14 0.466E-14 0.905E+00   0.720E-21 -.633E-20 0.362E+00   0.864E-13 -.841E-13 0.124E-04
   0.211E-08 -.179E-09 -.127E+01   -.138E-13 0.400E-14 0.905E+00   -.248E-20 -.722E-21 0.362E+00   -.733E-13 0.769E-13 0.124E-04
   0.211E-08 -.179E-09 -.127E+01   -.147E-13 0.488E-14 0.905E+00   -.195E-20 -.192E-22 0.362E+00   0.107E-12 0.704E-13 0.124E-04
   0.211E-08 -.179E-09 -.127E+01   -.222E-13 0.222E-14 0.905E+00   0.191E-20 -.111E-20 0.362E+00   -.845E-13 -.761E-13 0.124E-04
   0.211E-08 -.179E-09 -.127E+01   0.666E-15 0.311E-14 0.905E+00   -.249E-20 -.149E-20 0.362E+00   -.758E-13 -.138E-12 0.124E-04
   0.211E-08 -.179E-09 -.127E+01   -.444E-15 -.888E-15 0.905E+00   0.863E-21 0.240E-22 0.362E+00   0.735E-13 0.131E-12 0.124E-04
   0.211E-08 -.179E-09 -.127E+01   0.888E-15 0.666E-14 0.905E+00   0.979E-21 -.262E-20 0.362E+00   -.110E-12 0.129E-12 0.124E-04
   0.211E-08 -.179E-09 -.127E+01   0.000E+00 0.711E-14 0.905E+00   -.256E-20 0.250E-20 0.362E+00   0.997E-13 -.136E-12 0.124E-04
   -.607E-09 -.880E-10 0.127E+01   -.714E-14 0.596E-14 -.905E+00   0.514E-21 0.191E-20 -.362E+00   -.248E-14 0.290E-13 -.124E-04
   -.607E-09 -.880E-10 0.127E+01   -.843E-14 0.663E-14 -.905E+00   0.414E-20 0.600E-20 -.362E+00   -.230E-13 -.138E-13 -.124E-04
   -.607E-09 -.880E-10 0.127E+01   0.306E-14 0.126E-13 -.905E+00   0.720E-21 -.121E-20 -.362E+00   0.444E-13 -.151E-13 -.124E-04
   -.607E-09 -.880E-10 0.127E+01   -.711E-14 0.126E-13 -.905E+00   -.106E-20 0.793E-22 -.362E+00   -.698E-13 0.273E-13 -.124E-04
   -.607E-09 -.877E-10 0.127E+01   -.176E-13 0.149E-13 -.905E+00   0.199E-20 -.399E-20 -.362E+00   0.813E-14 -.322E-13 -.124E-04
   -.607E-09 -.890E-10 0.127E+01   0.492E-14 0.153E-13 -.905E+00   0.387E-21 -.437E-20 -.362E+00   0.197E-13 0.411E-13 -.124E-04
   -.607E-09 -.881E-10 0.127E+01   -.355E-14 0.142E-13 -.905E+00   -.551E-21 0.136E-20 -.362E+00   -.460E-13 0.481E-13 -.124E-04
   -.607E-09 -.880E-10 0.127E+01   0.451E-14 0.138E-13 -.905E+00   0.295E-20 0.285E-20 -.362E+00   0.719E-13 -.329E-13 -.124E-04
 -----------------------------------------------------------------------------------------------
   0.481E-07 -.855E-08 0.162E-04   0.306E-13 0.765E-13 0.742E-13   0.872E-20 0.135E-19 0.655E-14   0.736E-13 0.240E-13 -.732E-10
 
 
 POSITION                                       TOTAL-FORCE (eV/Angst)
 -----------------------------------------------------------------------------------
      0.00000      0.00000      0.00573         0.000000      0.000000     -0.000220
      0.00000      0.00000      5.38780         0.000000      0.000000     -0.000220
      0.04037      5.38207      0.00573        -0.000000      0.000000     -0.000220
      0.04037      5.38207      5.38780         0.000000      0.000000     -0.000220
      5.46280      0.04037      0.00573        -0.000000     -0.000000     -0.000220
      5.46280      0.04037      5.38780        -0.000000     -0.000000     -0.000220
      5.50316      5.42243      0.00573         0.000000     -0.000000     -0.000220
      5.50316      5.42243      5.38780         0.000000     -0.000000     -0.000220
      4.12737      4.06682      1.33978         0.000000     -0.000000      0.000220
      4.12737      4.06682      6.72185        -0.000000     -0.000000      0.000220
      4.16774      9.44889      1.33978        -0.000000     -0.000000      0.000220
      4.16774      9.44889      6.72185        -0.000000     -0.000000      0.000220
      9.59017      4.10719      1.33978         0.000000      0.000000      0.000220
      9.59017      4.10719      6.72185         0.000000      0.000000      0.000220
      9.63054      9.48926      1.33978         0.000000      0.000000      0.000220
      9.63054      9.48926      6.72185         0.000000      0.000000      0.000220
      0.02018      2.69103      2.69677         0.000000      0.000000     -0.000220
      0.02018      2.69103      8.07883         0.000000     -0.000000     -0.000220
      0.06055      8.07310      2.69677        -0.000000      0.000000     -0.000220
      0.06055      8.07310      8.07883         0.000000      0.000000     -0.000220
      5.48298      2.73140      2.69677         0.000000     -0.000000     -0.000220
      5.48298      2.73140      8.07883         0.000000     -0.000000     -0.000220
      5.52335      8.11347      2.69677         0.000000     -0.000000     -0.000220
      5.52335      8.11347      8.07883         0.000000     -0.000000     -0.000220
      4.10719      1.37579      4.03082        -0.000000     -0.000000      0.000220
      4.10719      1.37579      9.41288        -0.000000     -0.000000      0.000220
      4.14756      6.75786      4.03082        -0.000000      0.000000      0.000220
      4.14756      6.75786      9.41288         0.000000     -0.000000      0.000220
      9.56999      1.41616      4.03082        -0.000000      0.000000      0.000220
      9.56999      1.41616      9.41288        -0.000000      0.000000      0.000220
      9.61035      6.79822      4.03082         0.000000      0.000000      0.000220
      9.61035      6.79822      9.41288         0.000000      0.000000      0.000220
      2.73140      0.02018      2.69677        -0.000000      0.000000     -0.000220
      2.73140      0.02018      8.07883         0.000000      0.000000     -0.000220
      2.77176      5.40225      2.69677        -0.000000      0.000000     -0.000220
      2.77176      5.40225      8.07883        -0.000000      0.000000     -0.000220
      8.19420      0.06055      2.69677        -0.000000      0.000000     -0.000220
      8.19420      0.06055      8.07883        -0.000000     -0.000000     -0.000220
      8.23456      5.44262      2.69677        -0.000000     -0.000000     -0.000220
      8.23456      5.44262      8.07883         0.000000     -0.000000     -0.000220
      1.39597      4.04664      4.03082         0.000000      0.000000      0.000220
      1.39597      4.04664      9.41288         0.000000      0.000000      0.000220
      1.43634      9.42871      4.03082        -0.000000      0.000000      0.000220
      1.43634      9.42871      9.41288         0.000000      0.000000      0.000220
      6.85877      4.08701      4.03082        -0.000000     -0.000000      0.000220
      6.85877      4.08701      9.41288         0.000000     -0.000000      0.000220
      6.89914      9.46907      4.03082        -0.000000     -0.000000      0.000220
      6.89914      9.46907      9.41288         0.000000     -0.000000      0.000220
      2.75158      2.71122      0.00573         0.000000      0.000000     -0.000220
      2.75158      2.71122      5.38780         0.000000      0.000000     -0.000220
      2.79195      8.09328      0.00573        -0.000000      0.000000     -0.000220
      2.79195      8.09328      5.38780         0.000000      0.000000     -0.000220
      8.21438      2.75158      0.00573        -0.000000     -0.000000     -0.000220
      8.21438      2.75158      5.38780         0.000000     -0.000000     -0.000220
      8.25474      8.13365      0.00573        -0.000000     -0.000000     -0.000220
      8.25474      8.13365      5.38780         0.000000     -0.000000     -0.000220
      1.37579      1.35561      1.33978         0.000000      0.000000      0.000220
      1.37579      1.35561      6.72185         0.000000      0.000000      0.000220
      1.41616      6.73767      1.33978         0.000000      0.000000      0.000220
      1.41616      6.73767      6.72185         0.000000      0.000000      0.000220
      6.83859      1.39597      1.33978         0.000000     -0.000000      0.000220
      6.83859      1.39597      6.72185         0.000000     -0.000000      0.000220
      6.87895      6.77804      1.33978         0.000000     -0.000000      0.000220
      6.87895      6.77804      6.72185        -0.000000     -0.000000      0.000220
 -----------------------------------------------------------------------------------
    total drift:                                0.000000     -0.000000      0.000016


--------------------------------------------------------------------------------------------------------



  FREE ENERGIE OF THE ION-ELECTRON SYSTEM (eV)
  ---------------------------------------------------
  free  energy   TOTEN  =      -367.42420906 eV

  energy  without entropy=     -367.45127751  energy(sigma->0) =     -367.43323188
 
 d Force = 0.3029540E-02[ 0.261E-04, 0.603E-02]  d Energy = 0.3030983E-02-0.144E-05
 d Force =-0.1021028E+00[-0.107E+00,-0.968E-01]  d Ewald  =-0.1021027E+00-0.903E-07


--------------------------------------------------------------------------------------------------------


    POTLOK:  cpu time      0.1477: real time      0.1485


--------------------------------------------------------------------------------------------------------




--------------------------------------------------------------------------------------------------------


  
 reached required accuracy - stopping structural energy minimisation
     LOOP+:  cpu time     12.9849: real time     13.1838
    4ORBIT:  cpu time      0.0000: real time      0.0000

 total amount of memory used by VASP MPI-rank0    80156. kBytes
=======================================================================

   base      :      30000. kBytes
   nonlr-proj:       4554. kBytes
   fftplans  :      18113. kBytes
   grid      :       6881. kBytes
   one-center:         18. kBytes
   wavefun   :      20590. kBytes
 
  
  
 General timing and accounting informations for this job:
 ========================================================
  
                  Total CPU time used (sec):       60.058
                            User time (sec):       56.743
                          System time (sec):        3.315
                         Elapsed time (sec):       63.878
  
                   Maximum memory used (kb):      407904.
                   Average memory used (kb):          N/A
  
                          Minor page faults:        92596
                          Major page faults:            0
                 Voluntary context switches:         9494
