<?xml version="1.0" encoding="ISO-8859-1"?>
<modeling>
 <generator>
  <i name="program" type="string">vasp </i>
  <i name="version" type="string">6.4.3  </i>
  <i name="subversion" type="string">19Mar24 (build Oct 21 2024 22:36:34) complex                          parallel </i>
  <i name="platform" type="string">LinuxIFC </i>
  <i name="date" type="string">2024 11 01 </i>
  <i name="time" type="string">22:49:47 </i>
 </generator>
 <incar>
  <i type="string" name="SYSTEM">Si64</i>
  <i type="int" name="ISTART">     0</i>
  <i type="string" name="PREC">Accurate</i>
  <i type="string" name="ALGO">Fast</i>
  <i type="logical" name="ADDGRID"> T  </i>
  <i type="int" name="ICHARG">     2</i>
  <i type="int" name="NELM">    60</i>
  <i type="int" name="NELMIN">     8</i>
  <i type="int" name="IBRION">     2</i>
  <i name="EDIFF">      0.00000100</i>
  <i name="EDIFFG">     -0.01000000</i>
  <i type="int" name="NSW">    60</i>
  <i type="int" name="ISIF">     2</i>
  <i name="ENCUT">    400.00000000</i>
  <i type="string" name="LREAL">Auto</i>
  <i type="int" name="ISMEAR">     1</i>
  <i name="SIGMA">      0.20000000</i>
  <i type="logical" name="LWAVE"> F  </i>
  <i type="logical" name="LCHARG"> F  </i>
  <i type="logical" name="GGA_COMPAT"> F  </i>
  <i type="string" name="GGA">PS</i>
 </incar>
 <primitive_cell>
  <structure name="primitive_cell" >
   <crystal>
    <varray name="basis" >
     <v>       0.02018275       2.69103340      -2.69103340 </v>
     <v>       0.02018275       2.69103340       2.69103340 </v>
     <v>       2.71121615      -2.67085064       0.00000000 </v>
    </varray>
    <i name="volume">     39.55753609 </i>
    <varray name="rec_basis" >
     <v>       0.18169353       0.18443953      -0.18580223 </v>
     <v>       0.18169353       0.18443953       0.18580223 </v>
     <v>       0.36613305      -0.00274600       0.00000000 </v>
    </varray>
   </crystal>
   <varray name="positions" >
    <v>       0.00000000       0.00000000       0.00000000 </v>
    <v>       0.25000000       0.75000000       0.50000000 </v>
   </varray>
  </structure>
  <varray name="primitive_index" >
   <v type="int" >        1 </v>
   <v type="int" >       15 </v>
  </varray>
 </primitive_cell>
 <kpoints>
  <generation param="Gamma">
   <v type="int" name="divisions">       2        2        2 </v>
   <v name="usershift">      0.00000000       0.00000000       0.00000000 </v>
   <v name="genvec1">      0.50000000      -0.00000000       0.00000000 </v>
   <v name="genvec2">     -0.00000000       0.50000000       0.00000000 </v>
   <v name="genvec3">      0.00000000       0.00000000       0.50000000 </v>
   <v name="shift">      0.00000000       0.00000000       0.00000000 </v>
  </generation>
  <varray name="kpointlist" >
   <v>       0.00000000       0.00000000       0.00000000 </v>
   <v>       0.50000000       0.00000000       0.00000000 </v>
   <v>       0.00000000       0.50000000       0.00000000 </v>
   <v>       0.50000000       0.50000000       0.00000000 </v>
   <v>       0.00000000       0.00000000       0.50000000 </v>
   <v>       0.50000000       0.00000000       0.50000000 </v>
   <v>       0.00000000       0.50000000       0.50000000 </v>
   <v>       0.50000000       0.50000000       0.50000000 </v>
  </varray>
  <varray name="weights" >
   <v>       0.12500000 </v>
   <v>       0.12500000 </v>
   <v>       0.12500000 </v>
   <v>       0.12500000 </v>
   <v>       0.12500000 </v>
   <v>       0.12500000 </v>
   <v>       0.12500000 </v>
   <v>       0.12500000 </v>
  </varray>
 </kpoints>
 <parameters>
  <separator name="general" >
   <i type="string" name="SYSTEM">Si64</i>
   <i type="logical" name="LCOMPAT"> F  </i>
  </separator>
  <separator name="electronic" >
   <i type="string" name="PREC">accura</i>
   <i name="ENMAX">    400.00000000</i>
   <i name="ENAUG">    322.06900000</i>
   <i name="EDIFF">      0.00000100</i>
   <i type="int" name="IALGO">    68</i>
   <i type="int" name="IWAVPR">    11</i>
   <i type="int" name="NBANDS">   162</i>
   <i type="int" name="NBANDSLOW">    -1</i>
   <i type="int" name="NBANDSHIGH">    -1</i>
   <i name="NELECT">    256.00000000</i>
   <i type="int" name="TURBO">     0</i>
   <i type="int" name="IRESTART">     0</i>
   <i type="int" name="NREBOOT">     0</i>
   <i type="int" name="NMIN">     0</i>
   <i name="EREF">      0.00000000</i>
   <separator name="electronic smearing" >
    <i type="int" name="ISMEAR">     1</i>
    <i name="SIGMA">      0.20000000</i>
    <i name="KSPACING">      0.50000000</i>
    <i type="logical" name="KGAMMA"> T  </i>
    <i type="logical" name="KBLOWUP"> T  </i>
   </separator>
   <separator name="electronic projectors" >
    <i type="logical" name="LREAL"> T  </i>
    <v name="ROPT">     -0.00025000</v>
    <i type="int" name="LMAXPAW">  -100</i>
    <i type="int" name="LMAXMIX">     2</i>
    <i type="logical" name="NLSPLINE"> F  </i>
   </separator>
   <separator name="electronic startup" >
    <i type="int" name="ISTART">     0</i>
    <i type="int" name="ICHARG">     2</i>
    <i type="int" name="INIWAV">     1</i>
   </separator>
   <separator name="electronic spin" >
    <i type="int" name="ISPIN">     1</i>
    <i type="logical" name="LNONCOLLINEAR"> F  </i>
    <v name="MAGMOM">      1.00000000      1.00000000      1.00000000      1.00000000      1.00000000      1.00000000      1.00000000      1.00000000      1.00000000      1.00000000      1.00000000      1.00000000      1.00000000      1.00000000      1.00000000      1.00000000      1.00000000      1.00000000      1.00000000      1.00000000
      1.00000000      1.00000000      1.00000000      1.00000000      1.00000000      1.00000000      1.00000000      1.00000000      1.00000000      1.00000000      1.00000000      1.00000000      1.00000000      1.00000000      1.00000000      1.00000000      1.00000000      1.00000000      1.00000000      1.00000000
      1.00000000      1.00000000      1.00000000      1.00000000      1.00000000      1.00000000      1.00000000      1.00000000      1.00000000      1.00000000      1.00000000      1.00000000      1.00000000      1.00000000      1.00000000      1.00000000      1.00000000      1.00000000      1.00000000      1.00000000
      1.00000000      1.00000000      1.00000000      1.00000000</v>
    <i name="NUPDOWN">     -1.00000000</i>
    <i type="logical" name="LSORBIT"> F  </i>
    <v name="SAXIS">      0.00000000      0.00000000      1.00000000</v>
    <i type="logical" name="LSPIRAL"> F  </i>
    <v name="QSPIRAL">      0.00000000      0.00000000      0.00000000</v>
    <i type="logical" name="LZEROZ"> F  </i>
   </separator>
   <separator name="electronic exchange-correlation" >
    <i type="logical" name="LASPH"> F  </i>
   </separator>
   <separator name="electronic convergence" >
    <i type="int" name="NELM">    60</i>
    <i type="int" name="NELMDL">    -5</i>
    <i type="int" name="NELMIN">     8</i>
    <i name="ENINI">    400.00000000</i>
    <separator name="electronic convergence detail" >
     <i type="logical" name="LDIAG"> T  </i>
     <i type="logical" name="LSUBROT"> F  </i>
     <i name="WEIMIN">      0.00100000</i>
     <i name="EBREAK">      0.00000000</i>
     <i name="DEPER">      0.30000000</i>
     <i type="int" name="NRMM">     4</i>
     <i name="TIME">      0.40000000</i>
    </separator>
   </separator>
   <separator name="electronic mixer" >
    <i name="AMIX">      0.40000000</i>
    <i name="BMIX">      1.00000000</i>
    <i name="AMIN">      0.10000000</i>
    <i name="AMIX_MAG">      1.60000000</i>
    <i name="BMIX_MAG">      1.00000000</i>
    <separator name="electronic mixer details" >
     <i type="int" name="IMIX">     4</i>
     <i type="logical" name="MIXFIRST"> F  </i>
     <i type="int" name="MAXMIX">   -45</i>
     <i name="WC">    100.00000000</i>
     <i type="int" name="INIMIX">     1</i>
     <i type="int" name="MIXPRE">     1</i>
     <i type="int" name="MREMOVE">     5</i>
    </separator>
   </separator>
   <separator name="electronic dipolcorrection" >
    <i type="logical" name="LDIPOL"> F  </i>
    <i type="logical" name="LMONO"> F  </i>
    <i type="int" name="IDIPOL">     0</i>
    <i name="EPSILON">      1.00000000</i>
    <v name="DIPOL">   -100.00000000   -100.00000000   -100.00000000</v>
    <i name="EFIELD">      0.00000000</i>
    <i type="logical" name="LVACPOTAV"> F  </i>
   </separator>
  </separator>
  <separator name="grids" >
   <i type="int" name="NGX">    72</i>
   <i type="int" name="NGY">    70</i>
   <i type="int" name="NGZ">    70</i>
   <i type="int" name="NGXF">   144</i>
   <i type="int" name="NGYF">   140</i>
   <i type="int" name="NGZF">   140</i>
   <i type="logical" name="ADDGRID"> T  </i>
  </separator>
  <separator name="ionic" >
   <i type="int" name="NSW">    60</i>
   <i type="int" name="IBRION">     2</i>
   <i type="int" name="MDALGO">     0</i>
   <i type="int" name="ISIF">     2</i>
   <i name="PSTRESS">      0.00000000</i>
   <i name="EDIFFG">     -0.01000000</i>
   <i type="int" name="NFREE">     1</i>
   <i name="POTIM">      0.50000000</i>
   <i name="SMASS">     -3.00000000</i>
   <i name="SCALEE">      1.00000000</i>
  </separator>
  <separator name="ionic md" >
   <i name="TEBEG">      0.00010000</i>
   <i name="TEEND">      0.00010000</i>
   <i type="int" name="NBLOCK">     1</i>
   <i type="int" name="KBLOCK">    60</i>
   <i type="int" name="NPACO">   256</i>
   <i name="APACO">     10.00000000</i>
  </separator>
  <separator name="symmetry" >
   <i type="int" name="ISYM">     2</i>
   <i name="SYMPREC">      0.00001000</i>
  </separator>
  <separator name="dos" >
   <i type="int" name="LORBIT">     0</i>
   <v name="RWIGS">     -1.00000000</v>
   <i type="int" name="NEDOS">   301</i>
   <i name="EMIN">     10.00000000</i>
   <i name="EMAX">    -10.00000000</i>
   <i name="EFERMI">      0.00000000</i>
  </separator>
  <separator name="writing" >
   <i type="int" name="NWRITE">     2</i>
   <i type="logical" name="LWAVE"> F  </i>
   <i type="logical" name="LDOWNSAMPLE"> F  </i>
   <i type="logical" name="LCHARG"> F  </i>
   <i type="logical" name="LPARD"> F  </i>
   <i type="logical" name="LVTOT"> F  </i>
   <i type="logical" name="LVHAR"> F  </i>
   <i type="logical" name="LELF"> F  </i>
   <i type="logical" name="LOPTICS"> F  </i>
   <v name="STM">      0.00000000      0.00000000      0.00000000      0.00000000      0.00000000      0.00000000      0.00000000</v>
  </separator>
  <separator name="performance" >
   <i type="int" name="NPAR">     2</i>
   <i type="int" name="NSIM">     4</i>
   <i type="int" name="NBLK">    -1</i>
   <i type="logical" name="LPLANE"> T  </i>
   <i type="logical" name="LSCALAPACK"> T  </i>
   <i type="logical" name="LSCAAWARE"> F  </i>
   <i type="logical" name="LSCALU"> F  </i>
   <i type="logical" name="LASYNC"> F  </i>
   <i type="logical" name="LORBITALREAL"> F  </i>
  </separator>
  <separator name="miscellaneous" >
   <i type="int" name="IDIOT">     3</i>
   <i type="int" name="PHON_NSTRUCT">    -1</i>
   <i type="logical" name="LMUSIC"> F  </i>
   <v name="POMASS">     28.08500000</v>
   <v name="DARWINR">      0.00000000</v>
   <v name="DARWINV">      1.00000000</v>
   <i type="logical" name="LCORR"> T  </i>
  </separator>
  <i type="logical" name="GGA_COMPAT"> F  </i>
  <i type="logical" name="LBERRY"> F  </i>
  <i type="int" name="ICORELEVEL">     0</i>
  <i type="logical" name="LDAU"> F  </i>
  <i type="int" name="I_CONSTRAINED_M">     0</i>
  <separator name="electronic exchange-correlation" >
   <i type="string" name="GGA    ">PS</i>
   <i type="string" name="XC_C">1</i>
   <i type="int" name="VOSKOWN">     0</i>
   <i type="logical" name="LHFCALC"> F  </i>
   <i type="string" name="PRECFOCK"></i>
   <i type="logical" name="LSYMGRAD"> F  </i>
   <i type="logical" name="LHFONE"> F  </i>
   <i type="logical" name="LRHFCALC"> F  </i>
   <i type="logical" name="LTHOMAS"> F  </i>
   <i type="logical" name="LMODELHF"> F  </i>
   <i type="logical" name="LFOCKACE"> F  </i>
   <i name="ENCUT4O">     -1.00000000</i>
   <i type="int" name="EXXOEP">     0</i>
   <i type="int" name="FOURORBIT">     0</i>
   <i name="AEXX">      0.00000000</i>
   <i name="HFALPHA">      0.00000000</i>
   <i name="MCALPHA">      0.00000000</i>
   <i name="ALDAX">      1.00000000</i>
   <i name="AGGAX">      1.00000000</i>
   <i name="AMGGAX">      1.00000000</i>
   <i name="ALDAC">      1.00000000</i>
   <i name="AGGAC">      1.00000000</i>
   <i name="AMGGAC">      1.00000000</i>
   <i type="int" name="NKREDX">     1</i>
   <i type="int" name="NKREDY">     1</i>
   <i type="int" name="NKREDZ">     1</i>
   <i type="logical" name="SHIFTRED"> F  </i>
   <i type="logical" name="ODDONLY"> F  </i>
   <i type="logical" name="EVENONLY"> F  </i>
   <i type="int" name="LMAXFOCK">     0</i>
   <i type="int" name="NMAXFOCKAE">     0</i>
   <i type="logical" name="LFOCKAEDFT"> F  </i>
   <i name="HFSCREEN">      0.00000000</i>
   <i name="HFSCREENC">      0.00000000</i>
   <i type="int" name="NBANDSGWLOW">     0</i>
  </separator>
  <separator name="vdW DFT" >
   <i type="logical" name="LUSE_VDW"> F  </i>
   <i type="int" name="IVDW_NL">    -1</i>
   <i type="logical" name="LSPIN_VDW"> F  </i>
   <i name="ZAB_VDW">     -0.84910000</i>
   <i name="GAMMA_VDW">      1.39626340</i>
   <i name="ALPHA_VDW">      0.00000000</i>
   <i name="PARAM1">      0.12340000</i>
   <i name="PARAM2">      1.00000000</i>
   <i name="BPARAM">      6.30000000</i>
   <i name="CPARAM">      0.00930000</i>
  </separator>
  <separator name="model GW" >
   <i type="int" name="MODEL_GW">     0</i>
   <i name="MODEL_EPS0">     11.86726083</i>
   <i name="MODEL_ALPHA">      1.00000000</i>
  </separator>
  <separator name="linear response parameters" >
   <i type="logical" name="LEPSILON"> F  </i>
   <i type="logical" name="LRPA"> F  </i>
   <i type="logical" name="LNABLA"> F  </i>
   <i type="logical" name="LVEL"> F  </i>
   <i name="CSHIFT">      0.10000000</i>
   <i name="OMEGAMAX">     -1.00000000</i>
   <i name="DEG_THRESHOLD">      0.00200000</i>
   <i name="RTIME">     -0.10000000</i>
   <i name="WPLASMAI">      0.00000000</i>
   <v name="DFIELD">      0.00000000      0.00000000      0.00000000</v>
   <v name="WPLASMA">      0.00000000      0.00000000      0.00000000      0.00000000      0.00000000      0.00000000      0.00000000      0.00000000      0.00000000</v>
  </separator>
  <separator name="orbital magnetization" >
   <i type="logical" name="NUCIND"> F  </i>
   <v name="MAGPOS">      0.00000000      0.00000000      0.00000000</v>
   <i type="logical" name="LNICSALL"> T  </i>
   <i type="logical" name="ORBITALMAG"> F  </i>
   <i type="logical" name="LMAGBLOCH"> F  </i>
   <i type="logical" name="LCHIMAG"> F  </i>
   <i type="logical" name="LGAUGE"> T  </i>
   <i type="int" name="MAGATOM">     0</i>
   <v name="MAGDIPOL">      0.00000000      0.00000000      0.00000000</v>
   <v name="AVECCONST">      0.00000000      0.00000000      0.00000000</v>
  </separator>
  <separator name="response functions" >
   <i type="logical" name="LALL_IN_ONE"> F  </i>
   <i type="int" name="IALL_IN_ONE">    -1</i>
   <i type="int" name="NBANDS_WAVE">    -1</i>
   <i type="logical" name="LFINITE_TEMPERATURE"> F  </i>
   <i type="logical" name="LADDER"> F  </i>
   <i type="logical" name="LRPAFORCE"> F  </i>
   <i type="logical" name="LFXC"> F  </i>
   <i type="logical" name="LHARTREE"> T  </i>
   <i type="int" name="IBSE">     0</i>
   <v type="int" name="KPOINT">    -1     0     0     0</v>
   <i type="logical" name="LTCTC"> F  </i>
   <i type="logical" name="LTCTE"> F  </i>
   <i type="logical" name="LTETE"> F  </i>
   <i type="logical" name="LTRIPLET"> F  </i>
   <i type="logical" name="LFXCEPS"> F  </i>
   <i type="logical" name="LFXHEG"> F  </i>
   <i type="int" name="NATURALO">     2</i>
   <i type="logical" name="LHOLEGF"> F  </i>
   <i type="logical" name="L2ORDER"> F  </i>
   <i type="logical" name="LDMP1"> F  </i>
   <i type="logical" name="LMP2LT"> F  </i>
   <i type="logical" name="LSMP2LT"> F  </i>
   <i type="logical" name="LGWLF"> F  </i>
   <i name="ENCUTGW">     -1.60000002</i>
   <i name="ENCUTGWSOFT">     -1.60000002</i>
   <i name="ENCUTLF">     -1.00000000</i>
   <i type="logical" name="ESF_SPLINES"> F  </i>
   <i name="ESF_CONV">      0.01000000</i>
   <i type="int" name="ESF_NINTER">    15</i>
   <i type="int" name="LMAXMP2">    -1</i>
   <i name="SCISSOR">      0.00000000</i>
   <i type="int" name="NOMEGA">     0</i>
   <i type="int" name="NOMEGAR">     0</i>
   <i type="int" name="NBANDSGW">    -1</i>
   <i type="int" name="NBANDSO">    -1</i>
   <i type="int" name="NBANDSV">    -1</i>
   <i type="int" name="NELMGW">     1</i>
   <i type="int" name="NELMHF">     1</i>
   <i type="int" name="DIM">     3</i>
   <i type="int" name="IESPILON">     4</i>
   <i type="int" name="ANTIRES">     0</i>
   <i name="OMEGAMAX">    -30.00000000</i>
   <i name="OMEGAMIN">    -30.00000000</i>
   <i name="OMEGATL">   -200.00000000</i>
   <i type="int" name="OMEGAGRID">     0</i>
   <i name="CSHIFT">     -0.10000000</i>
   <i type="logical" name="LSELFENERGY"> F  </i>
   <i type="logical" name="LSPECTRAL"> F  </i>
   <i type="logical" name="LSPECTRALGW"> F  </i>
   <i type="logical" name="LSINGLES"> F  </i>
   <i type="logical" name="LFERMIGW"> F  </i>
   <i type="logical" name="ODDONLYGW"> F  </i>
   <i type="logical" name="EVENONLYGW"> F  </i>
   <i type="int" name="NKREDLFX">     1</i>
   <i type="int" name="NKREDLFY">     1</i>
   <i type="int" name="NKREDLFZ">     1</i>
   <i type="int" name="MAXMEM">  2800</i>
   <i type="int" name="TELESCOPE">     0</i>
   <i type="int" name="NTAUPAR">    -1</i>
   <i type="int" name="NOMEGAPAR">    -1</i>
   <i name="DAMP_NEWTON">      0.80000001</i>
   <i name="LAMBDA">      1.00000000</i>
  </separator>
  <separator name="External order field" >
   <i name="OFIELD_KAPPA">      0.00000000</i>
   <v name="OFIELD_K">      0.00000000      0.00000000      0.00000000</v>
   <i name="OFIELD_Q6_NEAR">      0.00000000</i>
   <i name="OFIELD_Q6_FAR">      0.00000000</i>
   <i name="OFIELD_A">      0.00000000</i>
  </separator>
  <separator name="optional k-points parameters" >
   <i type="int" name="KPOINTS_OPT_MODE">     1</i>
   <i type="logical" name="LKPOINTS_OPT"> F  </i>
  </separator>
 </parameters>
 <atominfo>
  <atoms>      64 </atoms>
  <types>       1 </types>
  <array name="atoms" >
   <dimension dim="1">ion</dimension>
   <field type="string">element</field>
   <field type="int">atomtype</field>
   <set>
    <rc><c>Si</c><c>   1</c></rc>
    <rc><c>Si</c><c>   1</c></rc>
    <rc><c>Si</c><c>   1</c></rc>
    <rc><c>Si</c><c>   1</c></rc>
    <rc><c>Si</c><c>   1</c></rc>
    <rc><c>Si</c><c>   1</c></rc>
    <rc><c>Si</c><c>   1</c></rc>
    <rc><c>Si</c><c>   1</c></rc>
    <rc><c>Si</c><c>   1</c></rc>
    <rc><c>Si</c><c>   1</c></rc>
    <rc><c>Si</c><c>   1</c></rc>
    <rc><c>Si</c><c>   1</c></rc>
    <rc><c>Si</c><c>   1</c></rc>
    <rc><c>Si</c><c>   1</c></rc>
    <rc><c>Si</c><c>   1</c></rc>
    <rc><c>Si</c><c>   1</c></rc>
    <rc><c>Si</c><c>   1</c></rc>
    <rc><c>Si</c><c>   1</c></rc>
    <rc><c>Si</c><c>   1</c></rc>
    <rc><c>Si</c><c>   1</c></rc>
    <rc><c>Si</c><c>   1</c></rc>
    <rc><c>Si</c><c>   1</c></rc>
    <rc><c>Si</c><c>   1</c></rc>
    <rc><c>Si</c><c>   1</c></rc>
    <rc><c>Si</c><c>   1</c></rc>
    <rc><c>Si</c><c>   1</c></rc>
    <rc><c>Si</c><c>   1</c></rc>
    <rc><c>Si</c><c>   1</c></rc>
    <rc><c>Si</c><c>   1</c></rc>
    <rc><c>Si</c><c>   1</c></rc>
    <rc><c>Si</c><c>   1</c></rc>
    <rc><c>Si</c><c>   1</c></rc>
    <rc><c>Si</c><c>   1</c></rc>
    <rc><c>Si</c><c>   1</c></rc>
    <rc><c>Si</c><c>   1</c></rc>
    <rc><c>Si</c><c>   1</c></rc>
    <rc><c>Si</c><c>   1</c></rc>
    <rc><c>Si</c><c>   1</c></rc>
    <rc><c>Si</c><c>   1</c></rc>
    <rc><c>Si</c><c>   1</c></rc>
    <rc><c>Si</c><c>   1</c></rc>
    <rc><c>Si</c><c>   1</c></rc>
    <rc><c>Si</c><c>   1</c></rc>
    <rc><c>Si</c><c>   1</c></rc>
    <rc><c>Si</c><c>   1</c></rc>
    <rc><c>Si</c><c>   1</c></rc>
    <rc><c>Si</c><c>   1</c></rc>
    <rc><c>Si</c><c>   1</c></rc>
    <rc><c>Si</c><c>   1</c></rc>
    <rc><c>Si</c><c>   1</c></rc>
    <rc><c>Si</c><c>   1</c></rc>
    <rc><c>Si</c><c>   1</c></rc>
    <rc><c>Si</c><c>   1</c></rc>
    <rc><c>Si</c><c>   1</c></rc>
    <rc><c>Si</c><c>   1</c></rc>
    <rc><c>Si</c><c>   1</c></rc>
    <rc><c>Si</c><c>   1</c></rc>
    <rc><c>Si</c><c>   1</c></rc>
    <rc><c>Si</c><c>   1</c></rc>
    <rc><c>Si</c><c>   1</c></rc>
    <rc><c>Si</c><c>   1</c></rc>
    <rc><c>Si</c><c>   1</c></rc>
    <rc><c>Si</c><c>   1</c></rc>
    <rc><c>Si</c><c>   1</c></rc>
   </set>
  </array>
  <array name="atomtypes" >
   <dimension dim="1">type</dimension>
   <field type="int">atomspertype</field>
   <field type="string">element</field>
   <field>mass</field>
   <field>valence</field>
   <field type="string">pseudopotential</field>
   <set>
    <rc><c>  64</c><c>Si</c><c>     28.08500000</c><c>      4.00000000</c><c>  PAW_PBE Si 05Jan2001                  </c></rc>
   </set>
  </array>
 </atominfo>
 <structure name="initialpos" >
  <crystal>
   <varray name="basis" >
    <v>      10.92559561       0.08073101       0.00000000 </v>
    <v>       0.08073101      10.76413359       0.00000000 </v>
    <v>       0.00000000       0.00000000      10.76413359 </v>
   </varray>
   <i name="volume">   1265.84115489 </i>
   <varray name="rec_basis" >
    <v>       0.09153326      -0.00068650       0.00000000 </v>
    <v>      -0.00068650       0.09290626       0.00000000 </v>
    <v>       0.00000000       0.00000000       0.09290111 </v>
   </varray>
  </crystal>
  <varray name="positions" >
   <v>       0.00000000       0.00000000       0.00000000 </v>
   <v>       0.00000000       0.00000000       0.50000000 </v>
   <v>       0.00000000       0.50000000       0.00000000 </v>
   <v>       0.00000000       0.50000000       0.50000000 </v>
   <v>       0.50000000       0.00000000       0.00000000 </v>
   <v>       0.50000000       0.00000000       0.50000000 </v>
   <v>       0.50000000       0.50000000       0.00000000 </v>
   <v>       0.50000000       0.50000000       0.50000000 </v>
   <v>       0.37500000       0.37500000       0.12500000 </v>
   <v>       0.37500000       0.37500000       0.62500000 </v>
   <v>       0.37500000       0.87500000       0.12500000 </v>
   <v>       0.37500000       0.87500000       0.62500000 </v>
   <v>       0.87500000       0.37500000       0.12500000 </v>
   <v>       0.87500000       0.37500000       0.62500000 </v>
   <v>       0.87500000       0.87500000       0.12500000 </v>
   <v>       0.87500000       0.87500000       0.62500000 </v>
   <v>       0.00000000       0.25000000       0.25000000 </v>
   <v>       0.00000000       0.25000000       0.75000000 </v>
   <v>       0.00000000       0.75000000       0.25000000 </v>
   <v>       0.00000000       0.75000000       0.75000000 </v>
   <v>       0.50000000       0.25000000       0.25000000 </v>
   <v>       0.50000000       0.25000000       0.75000000 </v>
   <v>       0.50000000       0.75000000       0.25000000 </v>
   <v>       0.50000000       0.75000000       0.75000000 </v>
   <v>       0.37500000       0.12500000       0.37500000 </v>
   <v>       0.37500000       0.12500000       0.87500000 </v>
   <v>       0.37500000       0.62500000       0.37500000 </v>
   <v>       0.37500000       0.62500000       0.87500000 </v>
   <v>       0.87500000       0.12500000       0.37500000 </v>
   <v>       0.87500000       0.12500000       0.87500000 </v>
   <v>       0.87500000       0.62500000       0.37500000 </v>
   <v>       0.87500000       0.62500000       0.87500000 </v>
   <v>       0.25000000       0.00000000       0.25000000 </v>
   <v>       0.25000000       0.00000000       0.75000000 </v>
   <v>       0.25000000       0.50000000       0.25000000 </v>
   <v>       0.25000000       0.50000000       0.75000000 </v>
   <v>       0.75000000       0.00000000       0.25000000 </v>
   <v>       0.75000000       0.00000000       0.75000000 </v>
   <v>       0.75000000       0.50000000       0.25000000 </v>
   <v>       0.75000000       0.50000000       0.75000000 </v>
   <v>       0.12500000       0.37500000       0.37500000 </v>
   <v>       0.12500000       0.37500000       0.87500000 </v>
   <v>       0.12500000       0.87500000       0.37500000 </v>
   <v>       0.12500000       0.87500000       0.87500000 </v>
   <v>       0.62500000       0.37500000       0.37500000 </v>
   <v>       0.62500000       0.37500000       0.87500000 </v>
   <v>       0.62500000       0.87500000       0.37500000 </v>
   <v>       0.62500000       0.87500000       0.87500000 </v>
   <v>       0.25000000       0.25000000       0.00000000 </v>
   <v>       0.25000000       0.25000000       0.50000000 </v>
   <v>       0.25000000       0.75000000       0.00000000 </v>
   <v>       0.25000000       0.75000000       0.50000000 </v>
   <v>       0.75000000       0.25000000       0.00000000 </v>
   <v>       0.75000000       0.25000000       0.50000000 </v>
   <v>       0.75000000       0.75000000       0.00000000 </v>
   <v>       0.75000000       0.75000000       0.50000000 </v>
   <v>       0.12500000       0.12500000       0.12500000 </v>
   <v>       0.12500000       0.12500000       0.62500000 </v>
   <v>       0.12500000       0.62500000       0.12500000 </v>
   <v>       0.12500000       0.62500000       0.62500000 </v>
   <v>       0.62500000       0.12500000       0.12500000 </v>
   <v>       0.62500000       0.12500000       0.62500000 </v>
   <v>       0.62500000       0.62500000       0.12500000 </v>
   <v>       0.62500000       0.62500000       0.62500000 </v>
  </varray>
 </structure>
 <calculation>
  <scstep>
   <time name="dav">    1.29    1.36</time>
   <time name="total">    1.48    1.57</time>
   <energy>
    <i name="alphaZ">    108.92692438 </i>
    <i name="ewald">  -7342.72139500 </i>
    <i name="hartreedc">   -346.43729721 </i>
    <i name="XCdc">   -557.18070803 </i>
    <i name="pawpsdc">   5598.62625415 </i>
    <i name="pawaedc">  -4492.17844134 </i>
    <i name="eentropy">     -0.00611650 </i>
    <i name="bandstr">   1027.19016618 </i>
    <i name="atom">   6564.79586099 </i>
    <i name="e_fr_energy">    561.01524763 </i>
    <i name="e_wo_entrp">    561.02136412 </i>
    <i name="e_0_energy">    561.01728646 </i>
   </energy>
  </scstep>
  <scstep>
   <time name="dav">    1.34    1.35</time>
   <time name="total">    1.34    1.35</time>
   <energy>
    <i name="e_fr_energy">   -310.99145665 </i>
    <i name="e_wo_entrp">   -311.00580899 </i>
    <i name="e_0_energy">   -310.99624076 </i>
   </energy>
  </scstep>
  <scstep>
   <time name="dav">    1.37    1.37</time>
   <time name="total">    1.37    1.38</time>
   <energy>
    <i name="e_fr_energy">   -373.17480162 </i>
    <i name="e_wo_entrp">   -373.18131732 </i>
    <i name="e_0_energy">   -373.17697352 </i>
   </energy>
  </scstep>
  <scstep>
   <time name="dav">    1.37    1.40</time>
   <time name="total">    1.37    1.40</time>
   <energy>
    <i name="e_fr_energy">   -374.80306758 </i>
    <i name="e_wo_entrp">   -374.81107042 </i>
    <i name="e_0_energy">   -374.80573519 </i>
   </energy>
  </scstep>
  <scstep>
   <time name="dav">    1.35    1.37</time>
   <time name="total">    1.61    1.64</time>
   <energy>
    <i name="e_fr_energy">   -374.85131990 </i>
    <i name="e_wo_entrp">   -374.85933939 </i>
    <i name="e_0_energy">   -374.85399306 </i>
   </energy>
  </scstep>
  <scstep>
   <time name="diag">    0.14    0.14</time>
   <time name="diis">    0.70    0.70</time>
   <time name="orth">    0.02    0.02</time>
   <time name="total">    1.26    1.28</time>
   <energy>
    <i name="e_fr_energy">   -369.67919847 </i>
    <i name="e_wo_entrp">   -369.68934966 </i>
    <i name="e_0_energy">   -369.68258220 </i>
   </energy>
  </scstep>
  <scstep>
   <time name="diag">    0.13    0.13</time>
   <time name="diis">    0.70    0.70</time>
   <time name="orth">    0.02    0.02</time>
   <time name="total">    1.26    1.28</time>
   <energy>
    <i name="e_fr_energy">   -367.32968903 </i>
    <i name="e_wo_entrp">   -367.35900299 </i>
    <i name="e_0_energy">   -367.33946035 </i>
   </energy>
  </scstep>
  <scstep>
   <time name="diag">    0.13    0.14</time>
   <time name="diis">    0.71    0.76</time>
   <time name="orth">    0.02    0.02</time>
   <time name="total">    1.28    1.34</time>
   <energy>
    <i name="e_fr_energy">   -367.37452041 </i>
    <i name="e_wo_entrp">   -367.40361597 </i>
    <i name="e_0_energy">   -367.38421893 </i>
   </energy>
  </scstep>
  <scstep>
   <time name="diag">    0.14    0.14</time>
   <time name="diis">    0.71    0.71</time>
   <time name="orth">    0.02    0.02</time>
   <time name="total">    1.26    1.29</time>
   <energy>
    <i name="e_fr_energy">   -367.39412090 </i>
    <i name="e_wo_entrp">   -367.42343559 </i>
    <i name="e_0_energy">   -367.40389247 </i>
   </energy>
  </scstep>
  <scstep>
   <time name="diag">    0.13    0.14</time>
   <time name="diis">    0.73    0.73</time>
   <time name="orth">    0.02    0.02</time>
   <time name="total">    1.29    1.31</time>
   <energy>
    <i name="e_fr_energy">   -367.39760786 </i>
    <i name="e_wo_entrp">   -367.42693499 </i>
    <i name="e_0_energy">   -367.40738357 </i>
   </energy>
  </scstep>
  <scstep>
   <time name="diag">    0.13    0.13</time>
   <time name="diis">    0.69    0.69</time>
   <time name="orth">    0.02    0.02</time>
   <time name="total">    1.24    1.26</time>
   <energy>
    <i name="e_fr_energy">   -367.39509661 </i>
    <i name="e_wo_entrp">   -367.42407848 </i>
    <i name="e_0_energy">   -367.40475723 </i>
   </energy>
  </scstep>
  <scstep>
   <time name="diag">    0.13    0.13</time>
   <time name="diis">    0.69    0.69</time>
   <time name="orth">    0.02    0.02</time>
   <time name="total">    1.24    1.26</time>
   <energy>
    <i name="e_fr_energy">   -367.39522012 </i>
    <i name="e_wo_entrp">   -367.42417917 </i>
    <i name="e_0_energy">   -367.40487313 </i>
   </energy>
  </scstep>
  <scstep>
   <time name="diag">    0.13    0.13</time>
   <time name="diis">    0.74    0.74</time>
   <time name="orth">    0.02    0.02</time>
   <time name="total">    1.29    1.31</time>
   <energy>
    <i name="e_fr_energy">   -367.39527446 </i>
    <i name="e_wo_entrp">   -367.42423830 </i>
    <i name="e_0_energy">   -367.40492907 </i>
   </energy>
  </scstep>
  <scstep>
   <time name="diag">    0.13    0.13</time>
   <time name="diis">    0.69    0.69</time>
   <time name="orth">    0.02    0.02</time>
   <time name="total">    1.25    1.26</time>
   <energy>
    <i name="e_fr_energy">   -367.39529962 </i>
    <i name="e_wo_entrp">   -367.42423722 </i>
    <i name="e_0_energy">   -367.40494549 </i>
   </energy>
  </scstep>
  <scstep>
   <time name="diag">    0.13    0.13</time>
   <time name="diis">    0.71    0.71</time>
   <time name="orth">    0.02    0.02</time>
   <time name="total">    1.26    1.28</time>
   <energy>
    <i name="e_fr_energy">   -367.39537657 </i>
    <i name="e_wo_entrp">   -367.42429712 </i>
    <i name="e_0_energy">   -367.40501676 </i>
   </energy>
  </scstep>
  <scstep>
   <time name="diag">    0.13    0.13</time>
   <time name="diis">    0.70    0.73</time>
   <time name="orth">    0.02    0.02</time>
   <time name="total">    1.26    1.31</time>
   <energy>
    <i name="e_fr_energy">   -367.39543068 </i>
    <i name="e_wo_entrp">   -367.42435405 </i>
    <i name="e_0_energy">   -367.40507180 </i>
   </energy>
  </scstep>
  <scstep>
   <time name="diag">    0.13    0.13</time>
   <time name="diis">    0.70    0.70</time>
   <time name="orth">    0.02    0.02</time>
   <time name="total">    1.25    1.27</time>
   <energy>
    <i name="e_fr_energy">   -367.39544981 </i>
    <i name="e_wo_entrp">   -367.42437187 </i>
    <i name="e_0_energy">   -367.40509050 </i>
   </energy>
  </scstep>
  <scstep>
   <time name="diag">    0.13    0.13</time>
   <time name="diis">    0.54    0.54</time>
   <time name="orth">    0.02    0.02</time>
   <time name="total">    1.09    1.11</time>
   <energy>
    <i name="e_fr_energy">   -367.39545326 </i>
    <i name="e_wo_entrp">   -367.42437448 </i>
    <i name="e_0_energy">   -367.40509367 </i>
   </energy>
  </scstep>
  <scstep>
   <time name="diag">    0.13    0.13</time>
   <time name="diis">    0.45    0.45</time>
   <time name="orth">    0.02    0.02</time>
   <time name="total">    0.75    0.77</time>
   <energy>
    <i name="alphaZ">    108.92692438 </i>
    <i name="ewald">  -7342.72139500 </i>
    <i name="hartreedc">   -463.63850595 </i>
    <i name="XCdc">   -537.41864452 </i>
    <i name="pawpsdc">  28508.24095261 </i>
    <i name="pawaedc"> -27408.97955590 </i>
    <i name="eentropy">      0.02892157 </i>
    <i name="bandstr">    203.36998777 </i>
    <i name="atom">   6564.79586099 </i>
    <i name="e_fr_energy">   -367.39545405 </i>
    <i name="e_wo_entrp">   -367.42437562 </i>
    <i name="e_0_energy">   -367.40509458 </i>
   </energy>
  </scstep>
  <structure>
   <crystal>
    <varray name="basis" >
     <v>      10.92559561       0.08073101       0.00000000 </v>
     <v>       0.08073101      10.76413359       0.00000000 </v>
     <v>       0.00000000       0.00000000      10.76413359 </v>
    </varray>
    <i name="volume">   1265.84115489 </i>
    <varray name="rec_basis" >
     <v>       0.09153326      -0.00068650       0.00000000 </v>
     <v>      -0.00068650       0.09290626       0.00000000 </v>
     <v>       0.00000000       0.00000000       0.09290111 </v>
    </varray>
   </crystal>
   <varray name="positions" >
    <v>       0.00000000       0.00000000       0.00000000 </v>
    <v>       0.00000000       0.00000000       0.50000000 </v>
    <v>       0.00000000       0.50000000       0.00000000 </v>
    <v>       0.00000000       0.50000000       0.50000000 </v>
    <v>       0.50000000       0.00000000       0.00000000 </v>
    <v>       0.50000000       0.00000000       0.50000000 </v>
    <v>       0.50000000       0.50000000       0.00000000 </v>
    <v>       0.50000000       0.50000000       0.50000000 </v>
    <v>       0.37500000       0.37500000       0.12500000 </v>
    <v>       0.37500000       0.37500000       0.62500000 </v>
    <v>       0.37500000       0.87500000       0.12500000 </v>
    <v>       0.37500000       0.87500000       0.62500000 </v>
    <v>       0.87500000       0.37500000       0.12500000 </v>
    <v>       0.87500000       0.37500000       0.62500000 </v>
    <v>       0.87500000       0.87500000       0.12500000 </v>
    <v>       0.87500000       0.87500000       0.62500000 </v>
    <v>       0.00000000       0.25000000       0.25000000 </v>
    <v>       0.00000000       0.25000000       0.75000000 </v>
    <v>       0.00000000       0.75000000       0.25000000 </v>
    <v>       0.00000000       0.75000000       0.75000000 </v>
    <v>       0.50000000       0.25000000       0.25000000 </v>
    <v>       0.50000000       0.25000000       0.75000000 </v>
    <v>       0.50000000       0.75000000       0.25000000 </v>
    <v>       0.50000000       0.75000000       0.75000000 </v>
    <v>       0.37500000       0.12500000       0.37500000 </v>
    <v>       0.37500000       0.12500000       0.87500000 </v>
    <v>       0.37500000       0.62500000       0.37500000 </v>
    <v>       0.37500000       0.62500000       0.87500000 </v>
    <v>       0.87500000       0.12500000       0.37500000 </v>
    <v>       0.87500000       0.12500000       0.87500000 </v>
    <v>       0.87500000       0.62500000       0.37500000 </v>
    <v>       0.87500000       0.62500000       0.87500000 </v>
    <v>       0.25000000       0.00000000       0.25000000 </v>
    <v>       0.25000000       0.00000000       0.75000000 </v>
    <v>       0.25000000       0.50000000       0.25000000 </v>
    <v>       0.25000000       0.50000000       0.75000000 </v>
    <v>       0.75000000       0.00000000       0.25000000 </v>
    <v>       0.75000000       0.00000000       0.75000000 </v>
    <v>       0.75000000       0.50000000       0.25000000 </v>
    <v>       0.75000000       0.50000000       0.75000000 </v>
    <v>       0.12500000       0.37500000       0.37500000 </v>
    <v>       0.12500000       0.37500000       0.87500000 </v>
    <v>       0.12500000       0.87500000       0.37500000 </v>
    <v>       0.12500000       0.87500000       0.87500000 </v>
    <v>       0.62500000       0.37500000       0.37500000 </v>
    <v>       0.62500000       0.37500000       0.87500000 </v>
    <v>       0.62500000       0.87500000       0.37500000 </v>
    <v>       0.62500000       0.87500000       0.87500000 </v>
    <v>       0.25000000       0.25000000       0.00000000 </v>
    <v>       0.25000000       0.25000000       0.50000000 </v>
    <v>       0.25000000       0.75000000       0.00000000 </v>
    <v>       0.25000000       0.75000000       0.50000000 </v>
    <v>       0.75000000       0.25000000       0.00000000 </v>
    <v>       0.75000000       0.25000000       0.50000000 </v>
    <v>       0.75000000       0.75000000       0.00000000 </v>
    <v>       0.75000000       0.75000000       0.50000000 </v>
    <v>       0.12500000       0.12500000       0.12500000 </v>
    <v>       0.12500000       0.12500000       0.62500000 </v>
    <v>       0.12500000       0.62500000       0.12500000 </v>
    <v>       0.12500000       0.62500000       0.62500000 </v>
    <v>       0.62500000       0.12500000       0.12500000 </v>
    <v>       0.62500000       0.12500000       0.62500000 </v>
    <v>       0.62500000       0.62500000       0.12500000 </v>
    <v>       0.62500000       0.62500000       0.62500000 </v>
   </varray>
  </structure>
  <varray name="forces" >
   <v>       0.00000000      -0.00000000       0.15727594 </v>
   <v>       0.00000000      -0.00000000       0.15727594 </v>
   <v>       0.00000000      -0.00000000       0.15727594 </v>
   <v>       0.00000000      -0.00000000       0.15727594 </v>
   <v>      -0.00000000       0.00000000       0.15727594 </v>
   <v>       0.00000000       0.00000000       0.15727594 </v>
   <v>      -0.00000000       0.00000000       0.15727594 </v>
   <v>      -0.00000000       0.00000000       0.15727594 </v>
   <v>      -0.00000000       0.00000000      -0.15727594 </v>
   <v>      -0.00000000       0.00000000      -0.15727594 </v>
   <v>      -0.00000000       0.00000000      -0.15727594 </v>
   <v>       0.00000000      -0.00000000      -0.15727594 </v>
   <v>      -0.00000000      -0.00000000      -0.15727594 </v>
   <v>      -0.00000000      -0.00000000      -0.15727594 </v>
   <v>       0.00000000      -0.00000000      -0.15727594 </v>
   <v>       0.00000000      -0.00000000      -0.15727594 </v>
   <v>       0.00000000      -0.00000000       0.15727594 </v>
   <v>       0.00000000      -0.00000000       0.15727594 </v>
   <v>       0.00000000      -0.00000000       0.15727594 </v>
   <v>       0.00000000      -0.00000000       0.15727594 </v>
   <v>      -0.00000000       0.00000000       0.15727594 </v>
   <v>      -0.00000000       0.00000000       0.15727594 </v>
   <v>      -0.00000000       0.00000000       0.15727594 </v>
   <v>      -0.00000000       0.00000000       0.15727594 </v>
   <v>      -0.00000000      -0.00000000      -0.15727594 </v>
   <v>       0.00000000       0.00000000      -0.15727594 </v>
   <v>      -0.00000000       0.00000000      -0.15727594 </v>
   <v>       0.00000000      -0.00000000      -0.15727594 </v>
   <v>      -0.00000000      -0.00000000      -0.15727594 </v>
   <v>      -0.00000000      -0.00000000      -0.15727594 </v>
   <v>       0.00000000      -0.00000000      -0.15727594 </v>
   <v>       0.00000000      -0.00000000      -0.15727594 </v>
   <v>       0.00000000      -0.00000000       0.15727594 </v>
   <v>       0.00000000      -0.00000000       0.15727594 </v>
   <v>       0.00000000      -0.00000000       0.15727594 </v>
   <v>       0.00000000      -0.00000000       0.15727594 </v>
   <v>      -0.00000000       0.00000000       0.15727594 </v>
   <v>       0.00000000       0.00000000       0.15727594 </v>
   <v>      -0.00000000       0.00000000       0.15727594 </v>
   <v>      -0.00000000       0.00000000       0.15727594 </v>
   <v>      -0.00000000      -0.00000000      -0.15727594 </v>
   <v>       0.00000000      -0.00000000      -0.15727594 </v>
   <v>       0.00000000       0.00000000      -0.15727594 </v>
   <v>       0.00000000      -0.00000000      -0.15727594 </v>
   <v>       0.00000000       0.00000000      -0.15727594 </v>
   <v>       0.00000000       0.00000000      -0.15727594 </v>
   <v>      -0.00000000       0.00000000      -0.15727594 </v>
   <v>       0.00000000       0.00000000      -0.15727594 </v>
   <v>      -0.00000000      -0.00000000       0.15727594 </v>
   <v>       0.00000000      -0.00000000       0.15727594 </v>
   <v>       0.00000000      -0.00000000       0.15727594 </v>
   <v>       0.00000000      -0.00000000       0.15727594 </v>
   <v>      -0.00000000       0.00000000       0.15727594 </v>
   <v>      -0.00000000       0.00000000       0.15727594 </v>
   <v>      -0.00000000       0.00000000       0.15727594 </v>
   <v>      -0.00000000       0.00000000       0.15727594 </v>
   <v>      -0.00000000      -0.00000000      -0.15727594 </v>
   <v>       0.00000000      -0.00000000      -0.15727594 </v>
   <v>      -0.00000000       0.00000000      -0.15727594 </v>
   <v>       0.00000000       0.00000000      -0.15727594 </v>
   <v>       0.00000000       0.00000000      -0.15727594 </v>
   <v>       0.00000000       0.00000000      -0.15727594 </v>
   <v>      -0.00000000       0.00000000      -0.15727594 </v>
   <v>      -0.00000000      -0.00000000      -0.15727594 </v>
  </varray>
  <varray name="stress" >
   <v>       5.22225572     -15.79743204       0.00000000 </v>
   <v>     -15.79743205      19.59848460       0.00000000 </v>
   <v>       0.00000000       0.00000000      19.31727543 </v>
  </varray>
  <energy>
   <i name="e_fr_energy">   -367.39545405 </i>
   <i name="e_wo_entrp">   -367.42437562 </i>
   <i name="e_0_energy">   -367.40509458 </i>
  </energy>
  <time name="totalsc">   27.85   28.40</time>
 </calculation>
 <calculation>
  <scstep>
   <time name="dav">    1.29    1.31</time>
   <time name="total">    1.69    1.71</time>
   <energy>
    <i name="alphaZ">    108.92692438 </i>
    <i name="ewald">  -7343.20583716 </i>
    <i name="hartreedc">   -463.39234030 </i>
    <i name="XCdc">   -537.42735224 </i>
    <i name="pawpsdc">  28513.75678533 </i>
    <i name="pawaedc"> -27414.49482840 </i>
    <i name="eentropy">      0.02561065 </i>
    <i name="bandstr">    203.59976890 </i>
    <i name="atom">   6564.79586099 </i>
    <i name="e_fr_energy">   -367.41540784 </i>
    <i name="e_wo_entrp">   -367.44101850 </i>
    <i name="e_0_energy">   -367.42394473 </i>
   </energy>
  </scstep>
  <scstep>
   <time name="diag">    0.13    0.14</time>
   <time name="diis">    0.69    0.70</time>
   <time name="orth">    0.02    0.02</time>
   <time name="total">    1.26    1.27</time>
   <energy>
    <i name="e_fr_energy">   -367.42034612 </i>
    <i name="e_wo_entrp">   -367.44589519 </i>
    <i name="e_0_energy">   -367.42886248 </i>
   </energy>
  </scstep>
  <scstep>
   <time name="diag">    0.14    0.14</time>
   <time name="diis">    0.70    0.70</time>
   <time name="orth">    0.02    0.02</time>
   <time name="total">    1.26    1.28</time>
   <energy>
    <i name="e_fr_energy">   -367.42115481 </i>
    <i name="e_wo_entrp">   -367.44683106 </i>
    <i name="e_0_energy">   -367.42971356 </i>
   </energy>
  </scstep>
  <scstep>
   <time name="diag">    0.13    0.13</time>
   <time name="diis">    0.71    0.72</time>
   <time name="orth">    0.02    0.02</time>
   <time name="total">    1.26    1.29</time>
   <energy>
    <i name="e_fr_energy">   -367.42116468 </i>
    <i name="e_wo_entrp">   -367.44697306 </i>
    <i name="e_0_energy">   -367.42976748 </i>
   </energy>
  </scstep>
  <scstep>
   <time name="diag">    0.14    0.14</time>
   <time name="diis">    0.71    0.71</time>
   <time name="orth">    0.02    0.02</time>
   <time name="total">    1.27    1.29</time>
   <energy>
    <i name="e_fr_energy">   -367.42117255 </i>
    <i name="e_wo_entrp">   -367.44703257 </i>
    <i name="e_0_energy">   -367.42979256 </i>
   </energy>
  </scstep>
  <scstep>
   <time name="diag">    0.14    0.14</time>
   <time name="diis">    0.75    0.79</time>
   <time name="orth">    0.02    0.02</time>
   <time name="total">    1.32    1.36</time>
   <energy>
    <i name="e_fr_energy">   -367.42117741 </i>
    <i name="e_wo_entrp">   -367.44703638 </i>
    <i name="e_0_energy">   -367.42979707 </i>
   </energy>
  </scstep>
  <scstep>
   <time name="diag">    0.14    0.14</time>
   <time name="diis">    0.59    0.62</time>
   <time name="orth">    0.02    0.02</time>
   <time name="total">    1.15    1.20</time>
   <energy>
    <i name="e_fr_energy">   -367.42117798 </i>
    <i name="e_wo_entrp">   -367.44703662 </i>
    <i name="e_0_energy">   -367.42979753 </i>
   </energy>
  </scstep>
  <scstep>
   <time name="diag">    0.14    0.14</time>
   <time name="diis">    0.47    0.47</time>
   <time name="orth">    0.02    0.02</time>
   <time name="total">    0.78    0.80</time>
   <energy>
    <i name="alphaZ">    108.92692438 </i>
    <i name="ewald">  -7343.20583716 </i>
    <i name="hartreedc">   -463.34235376 </i>
    <i name="XCdc">   -537.43805490 </i>
    <i name="pawpsdc">  28499.62015561 </i>
    <i name="pawaedc"> -27400.34907616 </i>
    <i name="eentropy">      0.02585867 </i>
    <i name="bandstr">    203.54534425 </i>
    <i name="atom">   6564.79586099 </i>
    <i name="e_fr_energy">   -367.42117808 </i>
    <i name="e_wo_entrp">   -367.44703675 </i>
    <i name="e_0_energy">   -367.42979764 </i>
   </energy>
  </scstep>
  <structure>
   <crystal>
    <varray name="basis" >
     <v>      10.92559561       0.08073101       0.00000000 </v>
     <v>       0.08073101      10.76413359       0.00000000 </v>
     <v>       0.00000000       0.00000000      10.76413359 </v>
    </varray>
    <i name="volume">   1265.84115489 </i>
    <varray name="rec_basis" >
     <v>       0.09153326      -0.00068650       0.00000000 </v>
     <v>      -0.00068650       0.09290626       0.00000000 </v>
     <v>       0.00000000       0.00000000       0.09290111 </v>
    </varray>
   </crystal>
   <varray name="positions" >
    <v>       0.00000000       1.00000000       0.00070488 </v>
    <v>       0.00000000       1.00000000       0.50070488 </v>
    <v>       0.00000000       0.50000000       0.00070488 </v>
    <v>       0.00000000       0.50000000       0.50070488 </v>
    <v>       0.50000000       0.00000000       0.00070488 </v>
    <v>       0.50000000       0.00000000       0.50070488 </v>
    <v>       0.50000000       0.50000000       0.00070488 </v>
    <v>       0.50000000       0.50000000       0.50070488 </v>
    <v>       0.37500000       0.37500000       0.12429512 </v>
    <v>       0.37500000       0.37500000       0.62429512 </v>
    <v>       0.37500000       0.87500000       0.12429512 </v>
    <v>       0.37500000       0.87500000       0.62429512 </v>
    <v>       0.87500000       0.37500000       0.12429512 </v>
    <v>       0.87500000       0.37500000       0.62429512 </v>
    <v>       0.87500000       0.87500000       0.12429512 </v>
    <v>       0.87500000       0.87500000       0.62429512 </v>
    <v>       0.00000000       0.25000000       0.25070488 </v>
    <v>       0.00000000       0.25000000       0.75070488 </v>
    <v>       0.00000000       0.75000000       0.25070488 </v>
    <v>       0.00000000       0.75000000       0.75070488 </v>
    <v>       0.50000000       0.25000000       0.25070488 </v>
    <v>       0.50000000       0.25000000       0.75070488 </v>
    <v>       0.50000000       0.75000000       0.25070488 </v>
    <v>       0.50000000       0.75000000       0.75070488 </v>
    <v>       0.37500000       0.12500000       0.37429512 </v>
    <v>       0.37500000       0.12500000       0.87429512 </v>
    <v>       0.37500000       0.62500000       0.37429512 </v>
    <v>       0.37500000       0.62500000       0.87429512 </v>
    <v>       0.87500000       0.12500000       0.37429512 </v>
    <v>       0.87500000       0.12500000       0.87429512 </v>
    <v>       0.87500000       0.62500000       0.37429512 </v>
    <v>       0.87500000       0.62500000       0.87429512 </v>
    <v>       0.25000000       1.00000000       0.25070488 </v>
    <v>       0.25000000       1.00000000       0.75070488 </v>
    <v>       0.25000000       0.50000000       0.25070488 </v>
    <v>       0.25000000       0.50000000       0.75070488 </v>
    <v>       0.75000000       0.00000000       0.25070488 </v>
    <v>       0.75000000       0.00000000       0.75070488 </v>
    <v>       0.75000000       0.50000000       0.25070488 </v>
    <v>       0.75000000       0.50000000       0.75070488 </v>
    <v>       0.12500000       0.37500000       0.37429512 </v>
    <v>       0.12500000       0.37500000       0.87429512 </v>
    <v>       0.12500000       0.87500000       0.37429512 </v>
    <v>       0.12500000       0.87500000       0.87429512 </v>
    <v>       0.62500000       0.37500000       0.37429512 </v>
    <v>       0.62500000       0.37500000       0.87429512 </v>
    <v>       0.62500000       0.87500000       0.37429512 </v>
    <v>       0.62500000       0.87500000       0.87429512 </v>
    <v>       0.25000000       0.25000000       0.00070488 </v>
    <v>       0.25000000       0.25000000       0.50070488 </v>
    <v>       0.25000000       0.75000000       0.00070488 </v>
    <v>       0.25000000       0.75000000       0.50070488 </v>
    <v>       0.75000000       0.25000000       0.00070488 </v>
    <v>       0.75000000       0.25000000       0.50070488 </v>
    <v>       0.75000000       0.75000000       0.00070488 </v>
    <v>       0.75000000       0.75000000       0.50070488 </v>
    <v>       0.12500000       0.12500000       0.12429512 </v>
    <v>       0.12500000       0.12500000       0.62429512 </v>
    <v>       0.12500000       0.62500000       0.12429512 </v>
    <v>       0.12500000       0.62500000       0.62429512 </v>
    <v>       0.62500000       0.12500000       0.12429512 </v>
    <v>       0.62500000       0.12500000       0.62429512 </v>
    <v>       0.62500000       0.62500000       0.12429512 </v>
    <v>       0.62500000       0.62500000       0.62429512 </v>
   </varray>
  </structure>
  <varray name="forces" >
   <v>       0.00000000       0.00000000      -0.05085002 </v>
   <v>       0.00000000      -0.00000000      -0.05085002 </v>
   <v>       0.00000000      -0.00000000      -0.05085002 </v>
   <v>       0.00000000       0.00000000      -0.05085002 </v>
   <v>      -0.00000000      -0.00000000      -0.05085002 </v>
   <v>       0.00000000      -0.00000000      -0.05085002 </v>
   <v>      -0.00000000      -0.00000000      -0.05085002 </v>
   <v>      -0.00000000       0.00000000      -0.05085002 </v>
   <v>       0.00000000      -0.00000000       0.05085002 </v>
   <v>       0.00000000       0.00000000       0.05085002 </v>
   <v>       0.00000000       0.00000000       0.05085002 </v>
   <v>      -0.00000000       0.00000000       0.05085002 </v>
   <v>      -0.00000000       0.00000000       0.05085002 </v>
   <v>      -0.00000000       0.00000000       0.05085002 </v>
   <v>       0.00000000       0.00000000       0.05085002 </v>
   <v>       0.00000000      -0.00000000       0.05085002 </v>
   <v>       0.00000000      -0.00000000      -0.05085002 </v>
   <v>      -0.00000000      -0.00000000      -0.05085002 </v>
   <v>       0.00000000       0.00000000      -0.05085002 </v>
   <v>       0.00000000       0.00000000      -0.05085002 </v>
   <v>      -0.00000000      -0.00000000      -0.05085002 </v>
   <v>      -0.00000000      -0.00000000      -0.05085002 </v>
   <v>      -0.00000000      -0.00000000      -0.05085002 </v>
   <v>      -0.00000000      -0.00000000      -0.05085002 </v>
   <v>      -0.00000000       0.00000000       0.05085002 </v>
   <v>       0.00000000       0.00000000       0.05085002 </v>
   <v>       0.00000000       0.00000000       0.05085002 </v>
   <v>       0.00000000      -0.00000000       0.05085002 </v>
   <v>      -0.00000000      -0.00000000       0.05085002 </v>
   <v>       0.00000000       0.00000000       0.05085002 </v>
   <v>      -0.00000000       0.00000000       0.05085002 </v>
   <v>      -0.00000000       0.00000000       0.05085002 </v>
   <v>       0.00000000       0.00000000      -0.05085002 </v>
   <v>       0.00000000       0.00000000      -0.05085002 </v>
   <v>       0.00000000      -0.00000000      -0.05085002 </v>
   <v>       0.00000000       0.00000000      -0.05085002 </v>
   <v>      -0.00000000       0.00000000      -0.05085002 </v>
   <v>      -0.00000000       0.00000000      -0.05085002 </v>
   <v>      -0.00000000       0.00000000      -0.05085002 </v>
   <v>      -0.00000000       0.00000000      -0.05085002 </v>
   <v>       0.00000000      -0.00000000       0.05085002 </v>
   <v>       0.00000000      -0.00000000       0.05085002 </v>
   <v>      -0.00000000       0.00000000       0.05085002 </v>
   <v>       0.00000000      -0.00000000       0.05085002 </v>
   <v>      -0.00000000      -0.00000000       0.05085002 </v>
   <v>      -0.00000000       0.00000000       0.05085002 </v>
   <v>       0.00000000       0.00000000       0.05085002 </v>
   <v>       0.00000000      -0.00000000       0.05085002 </v>
   <v>       0.00000000       0.00000000      -0.05085002 </v>
   <v>       0.00000000       0.00000000      -0.05085002 </v>
   <v>      -0.00000000      -0.00000000      -0.05085002 </v>
   <v>       0.00000000       0.00000000      -0.05085002 </v>
   <v>      -0.00000000       0.00000000      -0.05085002 </v>
   <v>      -0.00000000      -0.00000000      -0.05085002 </v>
   <v>      -0.00000000      -0.00000000      -0.05085002 </v>
   <v>       0.00000000       0.00000000      -0.05085002 </v>
   <v>      -0.00000000      -0.00000000       0.05085002 </v>
   <v>      -0.00000000      -0.00000000       0.05085002 </v>
   <v>       0.00000000      -0.00000000       0.05085002 </v>
   <v>      -0.00000000      -0.00000000       0.05085002 </v>
   <v>       0.00000000       0.00000000       0.05085002 </v>
   <v>       0.00000000      -0.00000000       0.05085002 </v>
   <v>      -0.00000000       0.00000000       0.05085002 </v>
   <v>      -0.00000000      -0.00000000       0.05085002 </v>
  </varray>
  <varray name="stress" >
   <v>       4.95437408      -9.27035686       0.00000000 </v>
   <v>      -9.27035685      19.40044863       0.00000000 </v>
   <v>       0.00000000       0.00000000      18.84643687 </v>
  </varray>
  <energy>
   <i name="e_fr_energy">   -367.42117808 </i>
   <i name="e_wo_entrp">   -367.44703675 </i>
   <i name="e_0_energy">   -367.42979764 </i>
  </energy>
  <time name="totalsc">   13.64   13.87</time>
 </calculation>
 <calculation>
  <scstep>
   <time name="dav">    1.29    1.30</time>
   <time name="total">    1.69    1.70</time>
   <energy>
    <i name="alphaZ">    108.92692438 </i>
    <i name="ewald">  -7343.10373446 </i>
    <i name="hartreedc">   -463.40220325 </i>
    <i name="XCdc">   -537.43535564 </i>
    <i name="pawpsdc">  28499.35396612 </i>
    <i name="pawaedc"> -27400.08286588 </i>
    <i name="eentropy">      0.02711630 </i>
    <i name="bandstr">    203.49642161 </i>
    <i name="atom">   6564.79586099 </i>
    <i name="e_fr_energy">   -367.42386984 </i>
    <i name="e_wo_entrp">   -367.45098614 </i>
    <i name="e_0_energy">   -367.43290860 </i>
   </energy>
  </scstep>
  <scstep>
   <time name="diag">    0.13    0.13</time>
   <time name="diis">    0.69    0.70</time>
   <time name="orth">    0.02    0.02</time>
   <time name="total">    1.25    1.27</time>
   <energy>
    <i name="e_fr_energy">   -367.42416121 </i>
    <i name="e_wo_entrp">   -367.45128665 </i>
    <i name="e_0_energy">   -367.43320302 </i>
   </energy>
  </scstep>
  <scstep>
   <time name="diag">    0.13    0.13</time>
   <time name="diis">    0.71    0.72</time>
   <time name="orth">    0.02    0.02</time>
   <time name="total">    1.27    1.31</time>
   <energy>
    <i name="e_fr_energy">   -367.42420739 </i>
    <i name="e_wo_entrp">   -367.45130912 </i>
    <i name="e_0_energy">   -367.43324130 </i>
   </energy>
  </scstep>
  <scstep>
   <time name="diag">    0.13    0.13</time>
   <time name="diis">    0.71    0.71</time>
   <time name="orth">    0.02    0.02</time>
   <time name="total">    1.27    1.28</time>
   <energy>
    <i name="e_fr_energy">   -367.42420824 </i>
    <i name="e_wo_entrp">   -367.45128606 </i>
    <i name="e_0_energy">   -367.43323418 </i>
   </energy>
  </scstep>
  <scstep>
   <time name="diag">    0.13    0.13</time>
   <time name="diis">    0.67    0.67</time>
   <time name="orth">    0.02    0.02</time>
   <time name="total">    1.23    1.25</time>
   <energy>
    <i name="e_fr_energy">   -367.42420878 </i>
    <i name="e_wo_entrp">   -367.45127701 </i>
    <i name="e_0_energy">   -367.43323152 </i>
   </energy>
  </scstep>
  <scstep>
   <time name="diag">    0.13    0.13</time>
   <time name="diis">    0.50    0.51</time>
   <time name="orth">    0.02    0.02</time>
   <time name="total">    1.06    1.08</time>
   <energy>
    <i name="e_fr_energy">   -367.42420901 </i>
    <i name="e_wo_entrp">   -367.45127730 </i>
    <i name="e_0_energy">   -367.43323177 </i>
   </energy>
  </scstep>
  <scstep>
   <time name="diag">    0.13    0.13</time>
   <time name="diis">    0.47    0.47</time>
   <time name="orth">    0.02    0.02</time>
   <time name="total">    1.02    1.05</time>
   <energy>
    <i name="e_fr_energy">   -367.42420905 </i>
    <i name="e_wo_entrp">   -367.45127750 </i>
    <i name="e_0_energy">   -367.43323187 </i>
   </energy>
  </scstep>
  <scstep>
   <time name="diag">    0.13    0.13</time>
   <time name="diis">    0.39    0.39</time>
   <time name="orth">    0.02    0.02</time>
   <time name="total">    0.69    0.71</time>
   <energy>
    <i name="alphaZ">    108.92692438 </i>
    <i name="ewald">  -7343.10373446 </i>
    <i name="hartreedc">   -463.42125756 </i>
    <i name="XCdc">   -537.43209627 </i>
    <i name="pawpsdc">  28503.68848028 </i>
    <i name="pawaedc"> -27404.41945760 </i>
    <i name="eentropy">      0.02706845 </i>
    <i name="bandstr">    203.51400274 </i>
    <i name="atom">   6564.79586099 </i>
    <i name="e_fr_energy">   -367.42420906 </i>
    <i name="e_wo_entrp">   -367.45127751 </i>
    <i name="e_0_energy">   -367.43323188 </i>
   </energy>
  </scstep>
  <structure>
   <crystal>
    <varray name="basis" >
     <v>      10.92559561       0.08073101       0.00000000 </v>
     <v>       0.08073101      10.76413359       0.00000000 </v>
     <v>       0.00000000       0.00000000      10.76413359 </v>
    </varray>
    <i name="volume">   1265.84115489 </i>
    <varray name="rec_basis" >
     <v>       0.09153326      -0.00068650       0.00000000 </v>
     <v>      -0.00068650       0.09290626       0.00000000 </v>
     <v>       0.00000000       0.00000000       0.09290111 </v>
    </varray>
   </crystal>
   <varray name="positions" >
    <v>       0.00000000       0.00000000       0.00053266 </v>
    <v>       0.00000000       0.00000000       0.50053266 </v>
    <v>       0.00000000       0.50000000       0.00053266 </v>
    <v>       0.00000000       0.50000000       0.50053266 </v>
    <v>       0.50000000       0.00000000       0.00053266 </v>
    <v>       0.50000000       0.00000000       0.50053266 </v>
    <v>       0.50000000       0.50000000       0.00053266 </v>
    <v>       0.50000000       0.50000000       0.50053266 </v>
    <v>       0.37500000       0.37500000       0.12446734 </v>
    <v>       0.37500000       0.37500000       0.62446734 </v>
    <v>       0.37500000       0.87500000       0.12446734 </v>
    <v>       0.37500000       0.87500000       0.62446734 </v>
    <v>       0.87500000       0.37500000       0.12446734 </v>
    <v>       0.87500000       0.37500000       0.62446734 </v>
    <v>       0.87500000       0.87500000       0.12446734 </v>
    <v>       0.87500000       0.87500000       0.62446734 </v>
    <v>       0.00000000       0.25000000       0.25053266 </v>
    <v>       0.00000000       0.25000000       0.75053266 </v>
    <v>       0.00000000       0.75000000       0.25053266 </v>
    <v>       0.00000000       0.75000000       0.75053266 </v>
    <v>       0.50000000       0.25000000       0.25053266 </v>
    <v>       0.50000000       0.25000000       0.75053266 </v>
    <v>       0.50000000       0.75000000       0.25053266 </v>
    <v>       0.50000000       0.75000000       0.75053266 </v>
    <v>       0.37500000       0.12500000       0.37446734 </v>
    <v>       0.37500000       0.12500000       0.87446734 </v>
    <v>       0.37500000       0.62500000       0.37446734 </v>
    <v>       0.37500000       0.62500000       0.87446734 </v>
    <v>       0.87500000       0.12500000       0.37446734 </v>
    <v>       0.87500000       0.12500000       0.87446734 </v>
    <v>       0.87500000       0.62500000       0.37446734 </v>
    <v>       0.87500000       0.62500000       0.87446734 </v>
    <v>       0.25000000       0.00000000       0.25053266 </v>
    <v>       0.25000000       0.00000000       0.75053266 </v>
    <v>       0.25000000       0.50000000       0.25053266 </v>
    <v>       0.25000000       0.50000000       0.75053266 </v>
    <v>       0.75000000       0.00000000       0.25053266 </v>
    <v>       0.75000000       0.00000000       0.75053266 </v>
    <v>       0.75000000       0.50000000       0.25053266 </v>
    <v>       0.75000000       0.50000000       0.75053266 </v>
    <v>       0.12500000       0.37500000       0.37446734 </v>
    <v>       0.12500000       0.37500000       0.87446734 </v>
    <v>       0.12500000       0.87500000       0.37446734 </v>
    <v>       0.12500000       0.87500000       0.87446734 </v>
    <v>       0.62500000       0.37500000       0.37446734 </v>
    <v>       0.62500000       0.37500000       0.87446734 </v>
    <v>       0.62500000       0.87500000       0.37446734 </v>
    <v>       0.62500000       0.87500000       0.87446734 </v>
    <v>       0.25000000       0.25000000       0.00053266 </v>
    <v>       0.25000000       0.25000000       0.50053266 </v>
    <v>       0.25000000       0.75000000       0.00053266 </v>
    <v>       0.25000000       0.75000000       0.50053266 </v>
    <v>       0.75000000       0.25000000       0.00053266 </v>
    <v>       0.75000000       0.25000000       0.50053266 </v>
    <v>       0.75000000       0.75000000       0.00053266 </v>
    <v>       0.75000000       0.75000000       0.50053266 </v>
    <v>       0.12500000       0.12500000       0.12446734 </v>
    <v>       0.12500000       0.12500000       0.62446734 </v>
    <v>       0.12500000       0.62500000       0.12446734 </v>
    <v>       0.12500000       0.62500000       0.62446734 </v>
    <v>       0.62500000       0.12500000       0.12446734 </v>
    <v>       0.62500000       0.12500000       0.62446734 </v>
    <v>       0.62500000       0.62500000       0.12446734 </v>
    <v>       0.62500000       0.62500000       0.62446734 </v>
   </varray>
  </structure>
  <varray name="forces" >
   <v>       0.00000000       0.00000000      -0.00022027 </v>
   <v>       0.00000000       0.00000000      -0.00022027 </v>
   <v>      -0.00000000       0.00000000      -0.00022027 </v>
   <v>       0.00000000       0.00000000      -0.00022027 </v>
   <v>      -0.00000000      -0.00000000      -0.00022027 </v>
   <v>      -0.00000000      -0.00000000      -0.00022027 </v>
   <v>       0.00000000      -0.00000000      -0.00022027 </v>
   <v>       0.00000000      -0.00000000      -0.00022027 </v>
   <v>       0.00000000      -0.00000000       0.00022027 </v>
   <v>      -0.00000000      -0.00000000       0.00022027 </v>
   <v>      -0.00000000      -0.00000000       0.00022027 </v>
   <v>      -0.00000000      -0.00000000       0.00022027 </v>
   <v>       0.00000000       0.00000000       0.00022027 </v>
   <v>       0.00000000       0.00000000       0.00022027 </v>
   <v>       0.00000000       0.00000000       0.00022027 </v>
   <v>       0.00000000       0.00000000       0.00022027 </v>
   <v>       0.00000000       0.00000000      -0.00022027 </v>
   <v>       0.00000000      -0.00000000      -0.00022027 </v>
   <v>      -0.00000000       0.00000000      -0.00022027 </v>
   <v>       0.00000000       0.00000000      -0.00022027 </v>
   <v>       0.00000000      -0.00000000      -0.00022027 </v>
   <v>       0.00000000      -0.00000000      -0.00022027 </v>
   <v>       0.00000000      -0.00000000      -0.00022027 </v>
   <v>       0.00000000      -0.00000000      -0.00022027 </v>
   <v>      -0.00000000      -0.00000000       0.00022027 </v>
   <v>      -0.00000000      -0.00000000       0.00022027 </v>
   <v>      -0.00000000       0.00000000       0.00022027 </v>
   <v>       0.00000000      -0.00000000       0.00022027 </v>
   <v>      -0.00000000       0.00000000       0.00022027 </v>
   <v>      -0.00000000       0.00000000       0.00022027 </v>
   <v>       0.00000000       0.00000000       0.00022027 </v>
   <v>       0.00000000       0.00000000       0.00022027 </v>
   <v>      -0.00000000       0.00000000      -0.00022027 </v>
   <v>       0.00000000       0.00000000      -0.00022027 </v>
   <v>      -0.00000000       0.00000000      -0.00022027 </v>
   <v>      -0.00000000       0.00000000      -0.00022027 </v>
   <v>      -0.00000000       0.00000000      -0.00022027 </v>
   <v>      -0.00000000      -0.00000000      -0.00022027 </v>
   <v>      -0.00000000      -0.00000000      -0.00022027 </v>
   <v>       0.00000000      -0.00000000      -0.00022027 </v>
   <v>       0.00000000       0.00000000       0.00022027 </v>
   <v>       0.00000000       0.00000000       0.00022027 </v>
   <v>      -0.00000000       0.00000000       0.00022027 </v>
   <v>       0.00000000       0.00000000       0.00022027 </v>
   <v>      -0.00000000      -0.00000000       0.00022027 </v>
   <v>       0.00000000      -0.00000000       0.00022027 </v>
   <v>      -0.00000000      -0.00000000       0.00022027 </v>
   <v>       0.00000000      -0.00000000       0.00022027 </v>
   <v>       0.00000000       0.00000000      -0.00022027 </v>
   <v>       0.00000000       0.00000000      -0.00022027 </v>
   <v>      -0.00000000       0.00000000      -0.00022027 </v>
   <v>       0.00000000       0.00000000      -0.00022027 </v>
   <v>      -0.00000000      -0.00000000      -0.00022027 </v>
   <v>       0.00000000      -0.00000000      -0.00022027 </v>
   <v>      -0.00000000      -0.00000000      -0.00022027 </v>
   <v>       0.00000000      -0.00000000      -0.00022027 </v>
   <v>       0.00000000       0.00000000       0.00022027 </v>
   <v>       0.00000000       0.00000000       0.00022027 </v>
   <v>       0.00000000       0.00000000       0.00022027 </v>
   <v>       0.00000000       0.00000000       0.00022027 </v>
   <v>       0.00000000      -0.00000000       0.00022027 </v>
   <v>       0.00000000      -0.00000000       0.00022027 </v>
   <v>       0.00000000      -0.00000000       0.00022027 </v>
   <v>      -0.00000000      -0.00000000       0.00022027 </v>
  </varray>
  <varray name="stress" >
   <v>       4.98829659     -10.87017364       0.00000000 </v>
   <v>     -10.87017364      19.42848530       0.00000000 </v>
   <v>       0.00000000       0.00000000      18.97740184 </v>
  </varray>
  <energy>
   <i name="e_fr_energy">   -367.42420906 </i>
   <i name="e_wo_entrp">   -367.45127751 </i>
   <i name="e_0_energy">   -367.43323188 </i>
  </energy>
  <time name="totalsc">   12.98   13.18</time>
  <eigenvalues>
   <array>
    <dimension dim="1">band</dimension>
    <dimension dim="2">kpoint</dimension>
    <dimension dim="3">spin</dimension>
    <field>eigene</field>
    <field>occ</field>
    <set>
     <set comment="spin 1">
      <set comment="kpoint 1">
       <r>   -6.1586    1.0000 </r>
       <r>   -5.0792    1.0000 </r>
       <r>   -5.0792    1.0000 </r>
       <r>   -5.0517    1.0000 </r>
       <r>   -5.0517    1.0000 </r>
       <r>   -5.0514    1.0000 </r>
       <r>   -5.0514    1.0000 </r>
       <r>   -4.1225    1.0000 </r>
       <r>   -4.1225    1.0000 </r>
       <r>   -4.0871    1.0000 </r>
       <r>   -4.0871    1.0000 </r>
       <r>   -4.0871    1.0000 </r>
       <r>   -4.0871    1.0000 </r>
       <r>   -4.0677    1.0000 </r>
       <r>   -4.0677    1.0000 </r>
       <r>   -4.0677    1.0000 </r>
       <r>   -4.0677    1.0000 </r>
       <r>   -4.0511    1.0000 </r>
       <r>   -4.0511    1.0000 </r>
       <r>   -3.8139    1.0000 </r>
       <r>   -3.8139    1.0000 </r>
       <r>   -3.7394    1.0000 </r>
       <r>   -3.7394    1.0000 </r>
       <r>   -2.0122    1.0000 </r>
       <r>   -2.0122    1.0000 </r>
       <r>   -1.9495    1.0000 </r>
       <r>   -1.9217    1.0000 </r>
       <r>   -1.9217    1.0000 </r>
       <r>   -1.8964    1.0000 </r>
       <r>   -1.8292    1.0000 </r>
       <r>   -1.8292    1.0000 </r>
       <r>   -1.7961    1.0000 </r>
       <r>   -1.7961    1.0000 </r>
       <r>   -1.7870    1.0000 </r>
       <r>   -1.7870    1.0000 </r>
       <r>   -1.7870    1.0000 </r>
       <r>   -1.7870    1.0000 </r>
       <r>   -1.7459    1.0000 </r>
       <r>   -1.7459    1.0000 </r>
       <r>   -1.7149    1.0000 </r>
       <r>   -1.7149    1.0000 </r>
       <r>   -1.1725    1.0000 </r>
       <r>   -1.1725    1.0000 </r>
       <r>   -1.1415    1.0000 </r>
       <r>   -1.1415    1.0000 </r>
       <r>    0.3650    1.0000 </r>
       <r>    0.3650    1.0000 </r>
       <r>    0.3650    1.0000 </r>
       <r>    0.3650    1.0000 </r>
       <r>    0.4111    1.0000 </r>
       <r>    0.4112    1.0000 </r>
       <r>    0.4182    1.0000 </r>
       <r>    0.4182    1.0000 </r>
       <r>    0.4182    1.0000 </r>
       <r>    0.4182    1.0000 </r>
       <r>    0.4258    1.0000 </r>
       <r>    0.4259    1.0000 </r>
       <r>    1.9383    1.0000 </r>
       <r>    1.9383    1.0000 </r>
       <r>    1.9436    1.0000 </r>
       <r>    1.9436    1.0000 </r>
       <r>    1.9546    1.0000 </r>
       <r>    1.9546    1.0000 </r>
       <r>    1.9546    1.0000 </r>
       <r>    1.9546    1.0000 </r>
       <r>    1.9711    1.0000 </r>
       <r>    1.9711    1.0000 </r>
       <r>    1.9788    1.0000 </r>
       <r>    1.9788    1.0000 </r>
       <r>    2.0104    1.0000 </r>
       <r>    2.0104    1.0000 </r>
       <r>    2.0104    1.0000 </r>
       <r>    2.0104    1.0000 </r>
       <r>    2.0781    1.0000 </r>
       <r>    2.0781    1.0000 </r>
       <r>    2.0935    1.0000 </r>
       <r>    2.0935    1.0000 </r>
       <r>    2.0935    1.0000 </r>
       <r>    2.0935    1.0000 </r>
       <r>    2.1051    1.0000 </r>
       <r>    2.1051    1.0000 </r>
       <r>    2.3273    1.0000 </r>
       <r>    2.3273    1.0000 </r>
       <r>    2.4333    1.0000 </r>
       <r>    2.4333    1.0000 </r>
       <r>    2.4358    1.0000 </r>
       <r>    2.4358    1.0000 </r>
       <r>    2.8743    1.0000 </r>
       <r>    2.9725    1.0000 </r>
       <r>    2.9725    1.0000 </r>
       <r>    3.0731    1.0000 </r>
       <r>    3.0877    1.0000 </r>
       <r>    3.0877    1.0000 </r>
       <r>    3.8622    1.0000 </r>
       <r>    3.8622    1.0000 </r>
       <r>    3.9399    1.0000 </r>
       <r>    3.9399    1.0000 </r>
       <r>    3.9728    1.0000 </r>
       <r>    3.9728    1.0000 </r>
       <r>    4.0456    1.0000 </r>
       <r>    4.0456    1.0000 </r>
       <r>    4.0463    1.0000 </r>
       <r>    4.0463    1.0000 </r>
       <r>    4.0528    1.0000 </r>
       <r>    4.0528    1.0000 </r>
       <r>    4.4581    1.0000 </r>
       <r>    4.4581    1.0000 </r>
       <r>    4.5256    1.0000 </r>
       <r>    4.5256    1.0000 </r>
       <r>    4.5256    1.0000 </r>
       <r>    4.5256    1.0000 </r>
       <r>    4.5723    1.0000 </r>
       <r>    4.5723    1.0000 </r>
       <r>    4.5966    1.0000 </r>
       <r>    4.5966    1.0000 </r>
       <r>    4.6470    1.0000 </r>
       <r>    4.6470    1.0000 </r>
       <r>    4.6470    1.0000 </r>
       <r>    4.6470    1.0000 </r>
       <r>    4.6837    1.0000 </r>
       <r>    4.6837    1.0000 </r>
       <r>    4.7491    1.0000 </r>
       <r>    4.7491    1.0000 </r>
       <r>    4.8092    1.0000 </r>
       <r>    4.8092    1.0000 </r>
       <r>    5.8107    1.0109 </r>
       <r>    5.9514    1.0353 </r>
       <r>    5.9911    1.0251 </r>
       <r>    6.3299    0.0420 </r>
       <r>    6.4415   -0.0353 </r>
       <r>    6.4415   -0.0353 </r>
       <r>    6.5547   -0.0137 </r>
       <r>    6.5610   -0.0126 </r>
       <r>    6.5610   -0.0126 </r>
       <r>    6.8972   -0.0000 </r>
       <r>    6.8972   -0.0000 </r>
       <r>    6.9000   -0.0000 </r>
       <r>    6.9000   -0.0000 </r>
       <r>    7.0187   -0.0000 </r>
       <r>    7.0187   -0.0000 </r>
       <r>    7.3345   -0.0000 </r>
       <r>    7.3345   -0.0000 </r>
       <r>    7.4961   -0.0000 </r>
       <r>    7.4961   -0.0000 </r>
       <r>    8.1608   -0.0000 </r>
       <r>    8.1608   -0.0000 </r>
       <r>    8.2406   -0.0000 </r>
       <r>    8.2406   -0.0000 </r>
       <r>    8.2406   -0.0000 </r>
       <r>    8.2406   -0.0000 </r>
       <r>    8.3234   -0.0000 </r>
       <r>    8.3234   -0.0000 </r>
       <r>    8.3619   -0.0000 </r>
       <r>    8.3809   -0.0000 </r>
       <r>    8.3809   -0.0000 </r>
       <r>    8.3809   -0.0000 </r>
       <r>    8.3809   -0.0000 </r>
       <r>    8.3989   -0.0000 </r>
       <r>    8.5360   -0.0000 </r>
       <r>    8.9287   -0.0000 </r>
       <r>    8.9342   -0.0000 </r>
       <r>    8.9479   -0.0000 </r>
      </set>
      <set comment="kpoint 2">
       <r>   -5.8865    1.0000 </r>
       <r>   -5.8865    1.0000 </r>
       <r>   -4.8223    1.0000 </r>
       <r>   -4.8223    1.0000 </r>
       <r>   -4.8040    1.0000 </r>
       <r>   -4.8040    1.0000 </r>
       <r>   -4.8040    1.0000 </r>
       <r>   -4.8040    1.0000 </r>
       <r>   -4.7852    1.0000 </r>
       <r>   -4.7852    1.0000 </r>
       <r>   -3.9600    1.0000 </r>
       <r>   -3.9600    1.0000 </r>
       <r>   -3.9600    1.0000 </r>
       <r>   -3.9600    1.0000 </r>
       <r>   -3.9137    1.0000 </r>
       <r>   -3.9137    1.0000 </r>
       <r>   -3.9137    1.0000 </r>
       <r>   -3.9137    1.0000 </r>
       <r>   -3.7671    1.0000 </r>
       <r>   -3.7671    1.0000 </r>
       <r>   -3.0499    1.0000 </r>
       <r>   -3.0499    1.0000 </r>
       <r>   -3.0029    1.0000 </r>
       <r>   -3.0029    1.0000 </r>
       <r>   -3.0029    1.0000 </r>
       <r>   -3.0029    1.0000 </r>
       <r>   -2.9554    1.0000 </r>
       <r>   -2.9554    1.0000 </r>
       <r>   -1.8755    1.0000 </r>
       <r>   -1.8755    1.0000 </r>
       <r>   -1.8718    1.0000 </r>
       <r>   -1.8718    1.0000 </r>
       <r>   -1.8133    1.0000 </r>
       <r>   -1.8133    1.0000 </r>
       <r>   -1.8118    1.0000 </r>
       <r>   -1.8118    1.0000 </r>
       <r>   -0.6968    1.0000 </r>
       <r>   -0.6968    1.0000 </r>
       <r>   -0.6797    1.0000 </r>
       <r>   -0.6797    1.0000 </r>
       <r>   -0.6797    1.0000 </r>
       <r>   -0.6797    1.0000 </r>
       <r>   -0.6648    1.0000 </r>
       <r>   -0.6648    1.0000 </r>
       <r>   -0.5833    1.0000 </r>
       <r>   -0.5833    1.0000 </r>
       <r>   -0.5833    1.0000 </r>
       <r>   -0.5833    1.0000 </r>
       <r>   -0.5320    1.0000 </r>
       <r>   -0.5320    1.0000 </r>
       <r>   -0.5320    1.0000 </r>
       <r>   -0.5320    1.0000 </r>
       <r>    0.0750    1.0000 </r>
       <r>    0.0750    1.0000 </r>
       <r>    1.5978    1.0000 </r>
       <r>    1.5978    1.0000 </r>
       <r>    1.6046    1.0000 </r>
       <r>    1.6046    1.0000 </r>
       <r>    1.6046    1.0000 </r>
       <r>    1.6046    1.0000 </r>
       <r>    1.6080    1.0000 </r>
       <r>    1.6080    1.0000 </r>
       <r>    1.6105    1.0000 </r>
       <r>    1.6105    1.0000 </r>
       <r>    1.6227    1.0000 </r>
       <r>    1.6227    1.0000 </r>
       <r>    1.6227    1.0000 </r>
       <r>    1.6227    1.0000 </r>
       <r>    1.6431    1.0000 </r>
       <r>    1.6431    1.0000 </r>
       <r>    2.3354    1.0000 </r>
       <r>    2.3354    1.0000 </r>
       <r>    2.3935    1.0000 </r>
       <r>    2.3935    1.0000 </r>
       <r>    2.4072    1.0000 </r>
       <r>    2.4072    1.0000 </r>
       <r>    2.4671    1.0000 </r>
       <r>    2.4671    1.0000 </r>
       <r>    3.1161    1.0000 </r>
       <r>    3.1161    1.0000 </r>
       <r>    3.1409    1.0000 </r>
       <r>    3.1409    1.0000 </r>
       <r>    3.1409    1.0000 </r>
       <r>    3.1409    1.0000 </r>
       <r>    3.1599    1.0000 </r>
       <r>    3.1599    1.0000 </r>
       <r>    3.1683    1.0000 </r>
       <r>    3.1683    1.0000 </r>
       <r>    3.2162    1.0000 </r>
       <r>    3.2162    1.0000 </r>
       <r>    3.2162    1.0000 </r>
       <r>    3.2162    1.0000 </r>
       <r>    3.2653    1.0000 </r>
       <r>    3.2653    1.0000 </r>
       <r>    3.2832    1.0000 </r>
       <r>    3.2832    1.0000 </r>
       <r>    3.2832    1.0000 </r>
       <r>    3.2832    1.0000 </r>
       <r>    3.3317    1.0000 </r>
       <r>    3.3317    1.0000 </r>
       <r>    3.3321    1.0000 </r>
       <r>    3.3321    1.0000 </r>
       <r>    3.3917    1.0000 </r>
       <r>    3.3917    1.0000 </r>
       <r>    3.3917    1.0000 </r>
       <r>    3.3917    1.0000 </r>
       <r>    4.4074    1.0000 </r>
       <r>    4.4074    1.0000 </r>
       <r>    4.4443    1.0000 </r>
       <r>    4.4443    1.0000 </r>
       <r>    4.4443    1.0000 </r>
       <r>    4.4443    1.0000 </r>
       <r>    4.4838    1.0000 </r>
       <r>    4.4838    1.0000 </r>
       <r>    4.5209    1.0000 </r>
       <r>    4.5209    1.0000 </r>
       <r>    4.6893    1.0000 </r>
       <r>    4.6893    1.0000 </r>
       <r>    4.6893    1.0000 </r>
       <r>    4.6893    1.0000 </r>
       <r>    4.7287    1.0000 </r>
       <r>    4.7287    1.0000 </r>
       <r>    4.7287    1.0000 </r>
       <r>    4.7287    1.0000 </r>
       <r>    5.1300    1.0000 </r>
       <r>    5.1300    1.0000 </r>
       <r>    5.1376    1.0000 </r>
       <r>    5.1376    1.0000 </r>
       <r>    6.4895   -0.0280 </r>
       <r>    6.4895   -0.0280 </r>
       <r>    7.3557   -0.0000 </r>
       <r>    7.3557   -0.0000 </r>
       <r>    7.5670   -0.0000 </r>
       <r>    7.5670   -0.0000 </r>
       <r>    7.6888   -0.0000 </r>
       <r>    7.6888   -0.0000 </r>
       <r>    7.7203   -0.0000 </r>
       <r>    7.7203   -0.0000 </r>
       <r>    7.8437   -0.0000 </r>
       <r>    7.8437   -0.0000 </r>
       <r>    7.9119   -0.0000 </r>
       <r>    7.9119   -0.0000 </r>
       <r>    8.1839   -0.0000 </r>
       <r>    8.1839   -0.0000 </r>
       <r>    8.2219   -0.0000 </r>
       <r>    8.2219   -0.0000 </r>
       <r>    8.2220   -0.0000 </r>
       <r>    8.2220   -0.0000 </r>
       <r>    8.2633   -0.0000 </r>
       <r>    8.2633   -0.0000 </r>
       <r>    8.2633   -0.0000 </r>
       <r>    8.2633   -0.0000 </r>
       <r>    8.2762   -0.0000 </r>
       <r>    8.2762   -0.0000 </r>
       <r>    8.3569   -0.0000 </r>
[...]
      </set>
     </set>
    </set>
   </array>
  </eigenvalues>
  <separator name="orbital magnetization" >
   <v name="MAGDIPOLOUT">      0.00000000      0.00000000      0.00000000</v>
  </separator>
  <dos>
   <i name="efermi">      6.19093102 </i>
   <total>
    <array>
     <dimension dim="1">gridpoints</dimension>
     <dimension dim="2">spin</dimension>
     <field>energy</field>
     <field>total</field>
     <field>integrated</field>
     <set>
      <set comment="spin 1">
       <r>    -8.1586     0.0000     0.0000 </r>
       <r>    -8.0936     0.0000     0.0000 </r>
       <r>    -8.0287     0.0000     0.0000 </r>
       <r>    -7.9637     0.0000     0.0000 </r>
       <r>    -7.8987     0.0000     0.0000 </r>
       <r>    -7.8337     0.0000     0.0000 </r>
       <r>    -7.7687    -0.0000    -0.0000 </r>
       <r>    -7.7038    -0.0000    -0.0000 </r>
       <r>    -7.6388    -0.0000    -0.0000 </r>
       <r>    -7.5738    -0.0000    -0.0000 </r>
       <r>    -7.5088    -0.0000    -0.0000 </r>
       <r>    -7.4438    -0.0000    -0.0000 </r>
       <r>    -7.3788    -0.0000    -0.0000 </r>
       <r>    -7.3139    -0.0000    -0.0000 </r>
       <r>    -7.2489    -0.0000    -0.0000 </r>
       <r>    -7.1839    -0.0000    -0.0000 </r>
       <r>    -7.1189    -0.0000    -0.0000 </r>
       <r>    -7.0539    -0.0000    -0.0000 </r>
       <r>    -6.9889    -0.0000    -0.0000 </r>
       <r>    -6.9240    -0.0000    -0.0000 </r>
       <r>    -6.8590    -0.0000    -0.0000 </r>
       <r>    -6.7940    -0.0001    -0.0000 </r>
       <r>    -6.7290    -0.0007    -0.0001 </r>
       <r>    -6.6640    -0.0031    -0.0003 </r>
       <r>    -6.5991    -0.0113    -0.0010 </r>
       <r>    -6.5341    -0.0300    -0.0029 </r>
       <r>    -6.4691    -0.0550    -0.0065 </r>
       <r>    -6.4041    -0.0521    -0.0099 </r>
       <r>    -6.3391     0.0411    -0.0072 </r>
       <r>    -6.2741     0.2497     0.0090 </r>
       <r>    -6.2092     0.4935     0.0411 </r>
       <r>    -6.1442     0.7082     0.0871 </r>
       <r>    -6.0792     1.1194     0.1598 </r>
       <r>    -6.0142     2.1628     0.3004 </r>
       <r>    -5.9492     3.8169     0.5484 </r>
       <r>    -5.8843     5.3034     0.8930 </r>
       <r>    -5.8193     6.0977     1.2893 </r>
       <r>    -5.7543     6.9734     1.7424 </r>
       <r>    -5.6893     8.9546     2.3243 </r>
       <r>    -5.6243    11.3117     3.0593 </r>
       <r>    -5.5593    12.0735     3.8439 </r>
       <r>    -5.4944    10.7731     4.5440 </r>
       <r>    -5.4294     9.0653     5.1331 </r>
       <r>    -5.3644     8.1800     5.6646 </r>
       <r>    -5.2994     7.4679     6.1499 </r>
       <r>    -5.2344     6.1193     6.5475 </r>
       <r>    -5.1694     4.7111     6.8537 </r>
       <r>    -5.1045     4.2621     7.1306 </r>
       <r>    -5.0395     5.2198     7.4698 </r>
       <r>    -4.9745     8.1418     7.9989 </r>
       <r>    -4.9095    13.6409     8.8853 </r>
       <r>    -4.8445    20.4753    10.2158 </r>
       <r>    -4.7796    25.5870    11.8785 </r>
       <r>    -4.7146    27.5368    13.6679 </r>
       <r>    -4.6496    27.7947    15.4741 </r>
       <r>    -4.5846    27.1518    17.2385 </r>
       <r>    -4.5196    23.6485    18.7752 </r>
       <r>    -4.4546    16.0477    19.8180 </r>
       <r>    -4.3897     6.9107    20.2671 </r>
       <r>    -4.3247     0.4373    20.2955 </r>
       <r>    -4.2597    -0.9942    20.2309 </r>
       <r>    -4.1947     2.7493    20.4096 </r>
       <r>    -4.1297    10.6149    21.0993 </r>
       <r>    -4.0647    20.3941    22.4246 </r>
       <r>    -3.9998    28.5233    24.2781 </r>
       <r>    -3.9348    31.4446    26.3214 </r>
       <r>    -3.8698    28.1002    28.1475 </r>
       <r>    -3.8048    21.0757    29.5170 </r>
       <r>    -3.7398    14.9810    30.4905 </r>
       <r>    -3.6749    13.6942    31.3804 </r>
       <r>    -3.6099    18.5519    32.5859 </r>
       <r>    -3.5449    27.7124    34.3867 </r>
       <r>    -3.4799    36.9545    36.7881 </r>
       <r>    -3.4149    42.3246    39.5385 </r>
       <r>    -3.3499    42.5723    42.3049 </r>
       <r>    -3.2850    38.8836    44.8316 </r>
       <r>    -3.2200    33.1944    46.9887 </r>
       <r>    -3.1550    27.7462    48.7917 </r>
       <r>    -3.0900    24.8473    50.4063 </r>
       <r>    -3.0250    24.7340    52.0136 </r>
       <r>    -2.9601    24.2248    53.5878 </r>
       <r>    -2.8951    19.8045    54.8747 </r>
       <r>    -2.8301    11.8505    55.6448 </r>
       <r>    -2.7651     4.0886    55.9105 </r>
       <r>    -2.7001    -0.5384    55.8755 </r>
       <r>    -2.6351    -1.8002    55.7585 </r>
       <r>    -2.5702    -0.6010    55.7195 </r>
       <r>    -2.5052     2.5786    55.8870 </r>
       <r>    -2.4402     7.0486    56.3451 </r>
       <r>    -2.3752    10.7874    57.0460 </r>
       <r>    -2.3102    11.3275    57.7821 </r>
       <r>    -2.2452     8.1428    58.3113 </r>
       <r>    -2.1803     3.6464    58.5482 </r>
       <r>    -2.1153     1.6815    58.6575 </r>
       <r>    -2.0503     5.2052    58.9957 </r>
       <r>    -1.9853    14.5591    59.9418 </r>
       <r>    -1.9203    26.5202    61.6652 </r>
       <r>    -1.8554    35.1642    63.9502 </r>
       <r>    -1.7904    35.4473    66.2537 </r>
       <r>    -1.7254    27.1474    68.0177 </r>
       <r>    -1.6604    15.1315    69.0010 </r>
       <r>    -1.5954     5.5661    69.3627 </r>
       <r>    -1.5304     1.9149    69.4872 </r>
       <r>    -1.4655     3.7478    69.7307 </r>
       <r>    -1.4005     7.9598    70.2479 </r>
       <r>    -1.3355    10.9401    70.9589 </r>
       <r>    -1.2705    10.8207    71.6620 </r>
       <r>    -1.2055     8.7033    72.2276 </r>
       <r>    -1.1406     7.8248    72.7360 </r>
       <r>    -1.0756    10.8872    73.4435 </r>
       <r>    -1.0106    17.2070    74.5617 </r>
       <r>    -0.9456    22.5945    76.0299 </r>
       <r>    -0.8806    23.6342    77.5657 </r>
       <r>    -0.8156    22.3246    79.0164 </r>
       <r>    -0.7507    24.6801    80.6202 </r>
       <r>    -0.6857    34.2650    82.8468 </r>
       <r>    -0.6207    47.9309    85.9614 </r>
       <r>    -0.5557    57.3729    89.6897 </r>
       <r>    -0.4907    54.8936    93.2568 </r>
       <r>    -0.4257    39.7998    95.8430 </r>
       <r>    -0.3608    19.9354    97.1385 </r>
       <r>    -0.2958     5.8232    97.5169 </r>
       <r>    -0.2308     3.0756    97.7168 </r>
       <r>    -0.1658     9.8106    98.3543 </r>
       <r>    -0.1008    19.1699    99.6000 </r>
       <r>    -0.0359    24.0577   101.1633 </r>
       <r>     0.0291    21.7192   102.5747 </r>
       <r>     0.0941    14.9090   103.5435 </r>
       <r>     0.1591     8.5013   104.0959 </r>
       <r>     0.2241     5.5452   104.4562 </r>
       <r>     0.2891     6.5796   104.8838 </r>
       <r>     0.3540    10.9492   105.5953 </r>
       <r>     0.4190    17.4328   106.7281 </r>
       <r>     0.4840    23.9975   108.2875 </r>
       <r>     0.5490    27.7939   110.0937 </r>
       <r>     0.6140    26.3093   111.8033 </r>
       <r>     0.6790    19.4714   113.0686 </r>
       <r>     0.7439    10.4032   113.7446 </r>
       <r>     0.8089     3.1306   113.9480 </r>
       <r>     0.8739    -0.4811   113.9168 </r>
       <r>     0.9389    -1.2471   113.8357 </r>
       <r>     1.0039    -0.9098   113.7766 </r>
       <r>     1.0688    -0.6634   113.7335 </r>
       <r>     1.1338    -0.9853   113.6695 </r>
       <r>     1.1988    -1.8642   113.5483 </r>
       <r>     1.2638    -2.4250   113.3908 </r>
       <r>     1.3288    -0.1535   113.3808 </r>
       <r>     1.3938     8.5908   113.9390 </r>
       <r>     1.4587    25.2002   115.5766 </r>
       <r>     1.5237    44.5940   118.4744 </r>
       <r>     1.5887    56.0986   122.1198 </r>
       <r>     1.6537    51.8969   125.4922 </r>
       <r>     1.7187    35.3151   127.7871 </r>
       <r>     1.7836    18.6680   129.0001 </r>
       <r>     1.8486    12.1589   129.7903 </r>
       <r>     1.9136    15.8304   130.8190 </r>
       <r>     1.9786    21.8878   132.2413 </r>
       <r>     2.0436    23.3798   133.7605 </r>
       <r>     2.1086    20.8256   135.1138 </r>
       <r>     2.1735    21.7225   136.5254 </r>
       <r>     2.2385    33.5690   138.7068 </r>
       <r>     2.3035    55.8521   142.3362 </r>
       <r>     2.3685    78.0087   147.4054 </r>
       <r>     2.4335    86.3031   153.0135 </r>
       <r>     2.4985    74.5108   157.8554 </r>
       <r>     2.5634    48.7583   161.0238 </r>
       <r>     2.6284    21.9599   162.4508 </r>
       <r>     2.6934     3.7447   162.6942 </r>
       <r>     2.7584    -4.3235   162.4132 </r>
       <r>     2.8234    -5.3125   162.0680 </r>
       <r>     2.8883    -0.8496   162.0128 </r>
       <r>     2.9533    10.7900   162.7140 </r>
       <r>     3.0183    30.7797   164.7141 </r>
       <r>     3.0833    54.8532   168.2786 </r>
       <r>     3.1483    74.1509   173.0971 </r>
       <r>     3.2133    81.8389   178.4151 </r>
       <r>     3.2782    77.8409   183.4734 </r>
       <r>     3.3432    66.9197   187.8220 </r>
       <r>     3.4082    54.1957   191.3438 </r>
       <r>     3.4732    43.4777   194.1690 </r>
       <r>     3.5382    37.7545   196.6224 </r>
       <r>     3.6031    38.2137   199.1056 </r>
       <r>     3.6681    41.9230   201.8299 </r>
       <r>     3.7331    42.7554   204.6082 </r>
       <r>     3.7981    37.2568   207.0292 </r>
       <r>     3.8631    29.0089   208.9143 </r>
       <r>     3.9281    24.8294   210.5278 </r>
       <r>     3.9930    27.0025   212.2824 </r>
       <r>     4.0580    31.5786   214.3345 </r>
       <r>     4.1230    34.1069   216.5508 </r>
       <r>     4.1880    34.4429   218.7890 </r>
       <r>     4.2530    35.3634   221.0870 </r>
       <r>     4.3180    38.7345   223.6040 </r>
       <r>     4.3829    44.2108   226.4770 </r>
       <r>     4.4479    50.1264   229.7343 </r>
       <r>     4.5129    54.2707   233.2609 </r>
       <r>     4.5779    54.3941   236.7956 </r>
       <r>     4.6429    49.0545   239.9832 </r>
       <r>     4.7078    38.5444   242.4879 </r>
       <r>     4.7728    25.3608   244.1359 </r>
       <r>     4.8378    13.6490   245.0229 </r>
       <r>     4.9028     7.3390   245.4998 </r>
       <r>     4.9678     7.9431   246.0159 </r>
       <r>     5.0328    13.6169   246.9008 </r>
       <r>     5.0977    20.0932   248.2065 </r>
       <r>     5.1627    22.9409   249.6972 </r>
       <r>     5.2277    20.0974   251.0032 </r>
       <r>     5.2927    13.1319   251.8566 </r>
       <r>     5.3577     6.0253   252.2481 </r>
       <r>     5.4227     2.3224   252.3990 </r>
       <r>     5.4876     3.0370   252.5964 </r>
       <r>     5.5526     6.5542   253.0223 </r>
       <r>     5.6176     9.9760   253.6705 </r>
       <r>     5.6826    10.9620   254.3829 </r>
       <r>     5.7476     9.1364   254.9766 </r>
       <r>     5.8125     6.0245   255.3681 </r>
       <r>     5.8775     3.4875   255.5947 </r>
       <r>     5.9425     2.1954   255.7373 </r>
       <r>     6.0075     1.5864   255.8404 </r>
       <r>     6.0725     1.0075   255.9059 </r>
       <r>     6.1375     0.6082   255.9454 </r>
       <r>     6.2024     1.1431   256.0197 </r>
       <r>     6.2674     3.0526   256.2181 </r>
       <r>     6.3324     5.8114   256.5957 </r>
       <r>     6.3974     8.1923   257.1281 </r>
       <r>     6.4624     9.1108   257.7201 </r>
       <r>     6.5273     8.2006   258.2530 </r>
       <r>     6.5923     5.8928   258.6359 </r>
       <r>     6.6573     3.3498   258.8536 </r>
       <r>     6.7223     2.1630   258.9941 </r>
       <r>     6.7873     3.4691   259.2196 </r>
       <r>     6.8523     6.9634   259.6721 </r>
       <r>     6.9172    10.8911   260.3798 </r>
       <r>     6.9822    13.3335   261.2462 </r>
       <r>     7.0472    13.8160   262.1440 </r>
       <r>     7.1122    13.8869   263.0464 </r>
       <r>     7.1772    15.9392   264.0822 </r>
       <r>     7.2422    20.7487   265.4305 </r>
       <r>     7.3071    25.8604   267.1110 </r>
       <r>     7.3721    27.2225   268.8799 </r>
       <r>     7.4371    23.3090   270.3946 </r>
       <r>     7.5021    17.3804   271.5240 </r>
       <r>     7.5671    14.9571   272.4960 </r>
       <r>     7.6320    19.0067   273.7311 </r>
       <r>     7.6970    27.8041   275.5378 </r>
       <r>     7.7620    36.9432   277.9385 </r>
       <r>     7.8270    42.5775   280.7053 </r>
       <r>     7.8920    43.2483   283.5156 </r>
       <r>     7.9570    40.4988   286.1474 </r>
       <r>     8.0219    38.3343   288.6384 </r>
       <r>     8.0869    40.5297   291.2721 </r>
       <r>     8.1519    47.3612   294.3497 </r>
       <r>     8.2169    55.3714   297.9479 </r>
       <r>     8.2819    60.4456   301.8758 </r>
       <r>     8.3469    60.5510   305.8105 </r>
       <r>     8.4118    55.7567   309.4337 </r>
       <r>     8.4768    47.0905   312.4938 </r>
       <r>     8.5418    36.3659   314.8569 </r>
       <r>     8.6068    26.3052   316.5663 </r>
       <r>     8.6718    19.4989   317.8333 </r>
       <r>     8.7367    16.8795   318.9302 </r>
       <r>     8.8017    17.2055   320.0483 </r>
       <r>     8.8667    17.8318   321.2070 </r>
       <r>     8.9317    16.3005   322.2662 </r>
       <r>     8.9967    11.9841   323.0450 </r>
       <r>     9.0617     6.4781   323.4660 </r>
       <r>     9.1266     2.1693   323.6069 </r>
       <r>     9.1916     0.3362   323.6288 </r>
       <r>     9.2566     0.5342   323.6635 </r>
       <r>     9.3216     1.3970   323.7543 </r>
       <r>     9.3866     1.7867   323.8704 </r>
       <r>     9.4515     1.4185   323.9625 </r>
       <r>     9.5165     0.7038   324.0083 </r>
       <r>     9.5815     0.1445   324.0177 </r>
       <r>     9.6465    -0.0869   324.0120 </r>
       <r>     9.7115    -0.1020   324.0054 </r>
       <r>     9.7765    -0.0555   324.0018 </r>
       <r>     9.8414    -0.0205   324.0005 </r>
       <r>     9.9064    -0.0056   324.0001 </r>
       <r>     9.9714    -0.0012   324.0000 </r>
       <r>    10.0364    -0.0002   324.0000 </r>
       <r>    10.1014    -0.0000   324.0000 </r>
       <r>    10.1664    -0.0000   324.0000 </r>
       <r>    10.2313    -0.0000   324.0000 </r>
       <r>    10.2963    -0.0000   324.0000 </r>
       <r>    10.3613    -0.0000   324.0000 </r>
       <r>    10.4263    -0.0000   324.0000 </r>
       <r>    10.4913    -0.0000   324.0000 </r>
       <r>    10.5562    -0.0000   324.0000 </r>
       <r>    10.6212    -0.0000   324.0000 </r>
       <r>    10.6862     0.0000   324.0000 </r>
       <r>    10.7512     0.0000   324.0000 </r>
       <r>    10.8162     0.0000   324.0000 </r>
       <r>    10.8812     0.0000   324.0000 </r>
       <r>    10.9461     0.0000   324.0000 </r>
       <r>    11.0111     0.0000   324.0000 </r>
       <r>    11.0761     0.0000   324.0000 </r>
       <r>    11.1411     0.0000   324.0000 </r>
       <r>    11.2061     0.0000   324.0000 </r>
       <r>    11.2710     0.0000   324.0000 </r>
       <r>    11.3360     0.0000   324.0000 </r>
      </set>
     </set>
    </array>
   </total>
  </dos>
 </calculation>
 <structure name="finalpos" >
  <crystal>
   <varray name="basis" >
    <v>      10.92559561       0.08073101       0.00000000 </v>
    <v>       0.08073101      10.76413359       0.00000000 </v>
    <v>       0.00000000       0.00000000      10.76413359 </v>
   </varray>
   <i name="volume">   1265.84115489 </i>
   <varray name="rec_basis" >
    <v>       0.09153326      -0.00068650       0.00000000 </v>
    <v>      -0.00068650       0.09290626       0.00000000 </v>
    <v>       0.00000000       0.00000000       0.09290111 </v>
   </varray>
  </crystal>
  <varray name="positions" >
   <v>       0.00000000       0.00000000       0.00053266 </v>
   <v>       0.00000000       0.00000000       0.50053266 </v>
   <v>       0.00000000       0.50000000       0.00053266 </v>
   <v>       0.00000000       0.50000000       0.50053266 </v>
   <v>       0.50000000       0.00000000       0.00053266 </v>
   <v>       0.50000000       0.00000000       0.50053266 </v>
   <v>       0.50000000       0.50000000       0.00053266 </v>
   <v>       0.50000000       0.50000000       0.50053266 </v>
   <v>       0.37500000       0.37500000       0.12446734 </v>
   <v>       0.37500000       0.37500000       0.62446734 </v>
   <v>       0.37500000       0.87500000       0.12446734 </v>
   <v>       0.37500000       0.87500000       0.62446734 </v>
   <v>       0.87500000       0.37500000       0.12446734 </v>
   <v>       0.87500000       0.37500000       0.62446734 </v>
   <v>       0.87500000       0.87500000       0.12446734 </v>
   <v>       0.87500000       0.87500000       0.62446734 </v>
   <v>       0.00000000       0.25000000       0.25053266 </v>
   <v>       0.00000000       0.25000000       0.75053266 </v>
   <v>       0.00000000       0.75000000       0.25053266 </v>
   <v>       0.00000000       0.75000000       0.75053266 </v>
   <v>       0.50000000       0.25000000       0.25053266 </v>
   <v>       0.50000000       0.25000000       0.75053266 </v>
   <v>       0.50000000       0.75000000       0.25053266 </v>
   <v>       0.50000000       0.75000000       0.75053266 </v>
   <v>       0.37500000       0.12500000       0.37446734 </v>
   <v>       0.37500000       0.12500000       0.87446734 </v>
   <v>       0.37500000       0.62500000       0.37446734 </v>
   <v>       0.37500000       0.62500000       0.87446734 </v>
   <v>       0.87500000       0.12500000       0.37446734 </v>
   <v>       0.87500000       0.12500000       0.87446734 </v>
   <v>       0.87500000       0.62500000       0.37446734 </v>
   <v>       0.87500000       0.62500000       0.87446734 </v>
   <v>       0.25000000       0.00000000       0.25053266 </v>
   <v>       0.25000000       0.00000000       0.75053266 </v>
   <v>       0.25000000       0.50000000       0.25053266 </v>
   <v>       0.25000000       0.50000000       0.75053266 </v>
   <v>       0.75000000       0.00000000       0.25053266 </v>
   <v>       0.75000000       0.00000000       0.75053266 </v>
   <v>       0.75000000       0.50000000       0.25053266 </v>
   <v>       0.75000000       0.50000000       0.75053266 </v>
   <v>       0.12500000       0.37500000       0.37446734 </v>
   <v>       0.12500000       0.37500000       0.87446734 </v>
   <v>       0.12500000       0.87500000       0.37446734 </v>
   <v>       0.12500000       0.87500000       0.87446734 </v>
   <v>       0.62500000       0.37500000       0.37446734 </v>
   <v>       0.62500000       0.37500000       0.87446734 </v>
   <v>       0.62500000       0.87500000       0.37446734 </v>
   <v>       0.62500000       0.87500000       0.87446734 </v>
   <v>       0.25000000       0.25000000       0.00053266 </v>
   <v>       0.25000000       0.25000000       0.50053266 </v>
   <v>       0.25000000       0.75000000       0.00053266 </v>
   <v>       0.25000000       0.75000000       0.50053266 </v>
   <v>       0.75000000       0.25000000       0.00053266 </v>
   <v>       0.75000000       0.25000000       0.50053266 </v>
   <v>       0.75000000       0.75000000       0.00053266 </v>
   <v>       0.75000000       0.75000000       0.50053266 </v>
   <v>       0.12500000       0.12500000       0.12446734 </v>
   <v>       0.12500000       0.12500000       0.62446734 </v>
   <v>       0.12500000       0.62500000       0.12446734 </v>
   <v>       0.12500000       0.62500000       0.62446734 </v>
   <v>       0.62500000       0.12500000       0.12446734 </v>
   <v>       0.62500000       0.12500000       0.62446734 </v>
   <v>       0.62500000       0.62500000       0.12446734 </v>
   <v>       0.62500000       0.62500000       0.62446734 </v>
  </varray>
 </structure>
</modeling>
