Si64                                    
           1
    10.925596    0.080731    0.000000
     0.080731   10.764134    0.000000
     0.000000    0.000000   10.764134
   Si
    64
Direct configuration=     1
   0.00000000  0.00000000  0.00000000
   0.00000000  0.00000000  0.50000000
   0.00000000  0.50000000  0.00000000
   0.00000000  0.50000000  0.50000000
   0.50000000  0.00000000  0.00000000
   0.50000000  0.00000000  0.50000000
   0.50000000  0.50000000  0.00000000
   0.50000000  0.50000000  0.50000000
   0.37500000  0.37500000  0.12500000
   0.37500000  0.37500000  0.62500000
   0.37500000  0.87500000  0.12500000
   0.37500000  0.87500000  0.62500000
   0.87500000  0.37500000  0.12500000
   0.87500000  0.37500000  0.62500000
   0.87500000  0.87500000  0.12500000
   0.87500000  0.87500000  0.62500000
   0.00000000  0.25000000  0.25000000
   0.00000000  0.25000000  0.75000000
   0.00000000  0.75000000  0.25000000
   0.00000000  0.75000000  0.75000000
   0.50000000  0.25000000  0.25000000
   0.50000000  0.25000000  0.75000000
   0.50000000  0.75000000  0.25000000
   0.50000000  0.75000000  0.75000000
   0.37500000  0.12500000  0.37500000
   0.37500000  0.12500000  0.87500000
   0.37500000  0.62500000  0.37500000
   0.37500000  0.62500000  0.87500000
   0.87500000  0.12500000  0.37500000
   0.87500000  0.12500000  0.87500000
   0.87500000  0.62500000  0.37500000
   0.87500000  0.62500000  0.87500000
   0.25000000  0.00000000  0.25000000
   0.25000000  0.00000000  0.75000000
   0.25000000  0.50000000  0.25000000
   0.25000000  0.50000000  0.75000000
   0.75000000  0.00000000  0.25000000
   0.75000000  0.00000000  0.75000000
   0.75000000  0.50000000  0.25000000
   0.75000000  0.50000000  0.75000000
   0.12500000  0.37500000  0.37500000
   0.12500000  0.37500000  0.87500000
   0.12500000  0.87500000  0.37500000
   0.12500000  0.87500000  0.87500000
   0.62500000  0.37500000  0.37500000
   0.62500000  0.37500000  0.87500000
   0.62500000  0.87500000  0.37500000
   0.62500000  0.87500000  0.87500000
   0.25000000  0.25000000  0.00000000
   0.25000000  0.25000000  0.50000000
   0.25000000  0.75000000  0.00000000
   0.25000000  0.75000000  0.50000000
   0.75000000  0.25000000  0.00000000
   0.75000000  0.25000000  0.50000000
   0.75000000  0.75000000  0.00000000
   0.75000000  0.75000000  0.50000000
   0.12500000  0.12500000  0.12500000
   0.12500000  0.12500000  0.62500000
   0.12500000  0.62500000  0.12500000
   0.12500000  0.62500000  0.62500000
   0.62500000  0.12500000  0.12500000
   0.62500000  0.12500000  0.62500000
   0.62500000  0.62500000  0.12500000
   0.62500000  0.62500000  0.62500000
Direct configuration=     2
   0.00000000  1.00000000  0.00070488
   0.00000000  1.00000000  0.50070488
   0.00000000  0.50000000  0.00070488
   0.00000000  0.50000000  0.50070488
   0.50000000  0.00000000  0.00070488
   0.50000000  0.00000000  0.50070488
   0.50000000  0.50000000  0.00070488
   0.50000000  0.50000000  0.50070488
   0.37500000  0.37500000  0.12429512
   0.37500000  0.37500000  0.62429512
   0.37500000  0.87500000  0.12429512
   0.37500000  0.87500000  0.62429512
   0.87500000  0.37500000  0.12429512
   0.87500000  0.37500000  0.62429512
   0.87500000  0.87500000  0.12429512
   0.87500000  0.87500000  0.62429512
   0.00000000  0.25000000  0.25070488
   0.00000000  0.25000000  0.75070488
   0.00000000  0.75000000  0.25070488
   0.00000000  0.75000000  0.75070488
   0.50000000  0.25000000  0.25070488
   0.50000000  0.25000000  0.75070488
   0.50000000  0.75000000  0.25070488
   0.50000000  0.75000000  0.75070488
   0.37500000  0.12500000  0.37429512
   0.37500000  0.12500000  0.87429512
   0.37500000  0.62500000  0.37429512
   0.37500000  0.62500000  0.87429512
   0.87500000  0.12500000  0.37429512
   0.87500000  0.12500000  0.87429512
   0.87500000  0.62500000  0.37429512
   0.87500000  0.62500000  0.87429512
   0.25000000  1.00000000  0.25070488
   0.25000000  1.00000000  0.75070488
   0.25000000  0.50000000  0.25070488
   0.25000000  0.50000000  0.75070488
   0.75000000  0.00000000  0.25070488
   0.75000000  0.00000000  0.75070488
   0.75000000  0.50000000  0.25070488
   0.75000000  0.50000000  0.75070488
   0.12500000  0.37500000  0.37429512
   0.12500000  0.37500000  0.87429512
   0.12500000  0.87500000  0.37429512
   0.12500000  0.87500000  0.87429512
   0.62500000  0.37500000  0.37429512
   0.62500000  0.37500000  0.87429512
   0.62500000  0.87500000  0.37429512
   0.62500000  0.87500000  0.87429512
   0.25000000  0.25000000  0.00070488
   0.25000000  0.25000000  0.50070488
   0.25000000  0.75000000  0.00070488
   0.25000000  0.75000000  0.50070488
   0.75000000  0.25000000  0.00070488
   0.75000000  0.25000000  0.50070488
   0.75000000  0.75000000  0.00070488
   0.75000000  0.75000000  0.50070488
   0.12500000  0.12500000  0.12429512
   0.12500000  0.12500000  0.62429512
   0.12500000  0.62500000  0.12429512
   0.12500000  0.62500000  0.62429512
   0.62500000  0.12500000  0.12429512
   0.62500000  0.12500000  0.62429512
   0.62500000  0.62500000  0.12429512
   0.62500000  0.62500000  0.62429512
Direct configuration=     3
   0.00000000  0.00000000  0.00053266
   0.00000000  0.00000000  0.50053266
   0.00000000  0.50000000  0.00053266
   0.00000000  0.50000000  0.50053266
   0.50000000  0.00000000  0.00053266
   0.50000000  0.00000000  0.50053266
   0.50000000  0.50000000  0.00053266
   0.50000000  0.50000000  0.50053266
   0.37500000  0.37500000  0.12446734
   0.37500000  0.37500000  0.62446734
   0.37500000  0.87500000  0.12446734
   0.37500000  0.87500000  0.62446734
   0.87500000  0.37500000  0.12446734
   0.87500000  0.37500000  0.62446734
   0.87500000  0.87500000  0.12446734
   0.87500000  0.87500000  0.62446734
   0.00000000  0.25000000  0.25053266
   0.00000000  0.25000000  0.75053266
   0.00000000  0.75000000  0.25053266
   0.00000000  0.75000000  0.75053266
   0.50000000  0.25000000  0.25053266
   0.50000000  0.25000000  0.75053266
   0.50000000  0.75000000  0.25053266
   0.50000000  0.75000000  0.75053266
   0.37500000  0.12500000  0.37446734
   0.37500000  0.12500000  0.87446734
   0.37500000  0.62500000  0.37446734
   0.37500000  0.62500000  0.87446734
   0.87500000  0.12500000  0.37446734
   0.87500000  0.12500000  0.87446734
   0.87500000  0.62500000  0.37446734
   0.87500000  0.62500000  0.87446734
   0.25000000  0.00000000  0.25053266
   0.25000000  0.00000000  0.75053266
   0.25000000  0.50000000  0.25053266
   0.25000000  0.50000000  0.75053266
   0.75000000  0.00000000  0.25053266
   0.75000000  0.00000000  0.75053266
   0.75000000  0.50000000  0.25053266
   0.75000000  0.50000000  0.75053266
   0.12500000  0.37500000  0.37446734
   0.12500000  0.37500000  0.87446734
   0.12500000  0.87500000  0.37446734
   0.12500000  0.87500000  0.87446734
   0.62500000  0.37500000  0.37446734
   0.62500000  0.37500000  0.87446734
   0.62500000  0.87500000  0.37446734
   0.62500000  0.87500000  0.87446734
   0.25000000  0.25000000  0.00053266
   0.25000000  0.25000000  0.50053266
   0.25000000  0.75000000  0.00053266
   0.25000000  0.75000000  0.50053266
   0.75000000  0.25000000  0.00053266
   0.75000000  0.25000000  0.50053266
   0.75000000  0.75000000  0.00053266
   0.75000000  0.75000000  0.50053266
   0.12500000  0.12500000  0.12446734
   0.12500000  0.12500000  0.62446734
   0.12500000  0.62500000  0.12446734
   0.12500000  0.62500000  0.62446734
   0.62500000  0.12500000  0.12446734
   0.62500000  0.12500000  0.62446734
   0.62500000  0.62500000  0.12446734
   0.62500000  0.62500000  0.62446734
