  64  64   0   0
  0.2013400E+02  0.1088187E-08  0.1088187E-08  0.1088187E-08  0.5000000E-15
  1.000000000000000E-004
  CAR 
 Si64                                    
     11.21994663     -8.20749150  301      6.12396644      1.00000000
     -8.207  0.0000E+00  0.0000E+00
     -8.143  0.0000E+00  0.0000E+00
     -8.078  0.0000E+00  0.0000E+00
     -8.013  0.0000E+00  0.0000E+00
     -7.948  0.0000E+00  0.0000E+00
     -7.884  0.0000E+00  0.0000E+00
     -7.819 -0.9353E-29 -0.6057E-30
     -7.754 -0.1482E-26 -0.9659E-28
     -7.689 -0.1910E-24 -0.1247E-25
     -7.625 -0.1992E-22 -0.1302E-23
     -7.560 -0.1680E-20 -0.1101E-21
     -7.495 -0.1146E-18 -0.7528E-20
     -7.430 -0.6313E-17 -0.4164E-18
     -7.366 -0.2739E-15 -0.1816E-16
     -7.301 -0.9769E-14 -0.6508E-15
     -7.236 -0.2822E-12 -0.1893E-13
     -7.171 -0.6565E-11 -0.4441E-12
     -7.107 -0.1229E-09 -0.8401E-11
     -7.042 -0.1847E-08 -0.1280E-09
     -6.977 -0.2224E-07 -0.1568E-08
     -6.912 -0.2140E-06 -0.1543E-07
     -6.848 -0.1638E-05 -0.1215E-06
     -6.783 -0.9912E-05 -0.7634E-06
     -6.718 -0.4695E-04 -0.3804E-05
     -6.653 -0.1713E-03 -0.1490E-04
     -6.589 -0.4674E-03 -0.4517E-04
     -6.524 -0.8900E-03 -0.1028E-03
     -6.459 -0.9359E-03 -0.1634E-03
     -6.394  0.3989E-03 -0.1376E-03
     -6.330  0.3647E-02  0.9862E-04
     -6.265  0.7702E-02  0.5974E-03
     -6.200  0.1145E-01  0.1339E-02
     -6.135  0.1817E-01  0.2515E-02
     -6.070  0.3485E-01  0.4772E-02
     -6.006  0.6189E-01  0.8780E-02
     -5.941  0.8737E-01  0.1444E-01
     -5.876  0.1022E+00  0.2106E-01
     -5.811  0.1177E+00  0.2868E-01
     -5.747  0.1502E+00  0.3841E-01
     -5.682  0.1891E+00  0.5065E-01
     -5.617  0.2026E+00  0.6377E-01
     -5.552  0.1824E+00  0.7558E-01
     -5.488  0.1543E+00  0.8558E-01
     -5.423  0.1385E+00  0.9455E-01
     -5.358  0.1251E+00  0.1027E+00
     -5.293  0.1020E+00  0.1093E+00
     -5.229  0.7868E-01  0.1143E+00
     -5.164  0.7186E-01  0.1190E+00
     -5.099  0.8980E-01  0.1248E+00
     -5.034  0.1431E+00  0.1341E+00
     -4.970  0.2399E+00  0.1496E+00
     -4.905  0.3551E+00  0.1726E+00
     -4.840  0.4373E+00  0.2009E+00
     -4.775  0.4681E+00  0.2312E+00
     -4.711  0.4729E+00  0.2619E+00
     -4.646  0.4574E+00  0.2915E+00
     -4.581  0.3854E+00  0.3164E+00
     -4.516  0.2458E+00  0.3324E+00
     -4.452  0.9200E-01  0.3383E+00
     -4.387 -0.5772E-02  0.3379E+00
     -4.322 -0.1362E-01  0.3371E+00
     -4.257  0.6687E-01  0.3414E+00
     -4.192  0.2149E+00  0.3553E+00
     -4.128  0.3863E+00  0.3803E+00
     -4.063  0.5126E+00  0.4135E+00
     -3.998  0.5343E+00  0.4481E+00
     -3.933  0.4485E+00  0.4772E+00
     -3.869  0.3175E+00  0.4977E+00
     -3.804  0.2261E+00  0.5124E+00
     -3.739  0.2335E+00  0.5275E+00
     -3.674  0.3482E+00  0.5500E+00
     -3.610  0.5217E+00  0.5838E+00
     -3.545  0.6725E+00  0.6274E+00
     -3.480  0.7407E+00  0.6753E+00
     -3.415  0.7201E+00  0.7220E+00
     -3.351  0.6374E+00  0.7632E+00
     -3.286  0.5277E+00  0.7974E+00
     -3.221  0.4376E+00  0.8258E+00
     -3.156  0.4068E+00  0.8521E+00
     -3.092  0.4154E+00  0.8790E+00
     -3.027  0.3875E+00  0.9041E+00
     -2.962  0.2797E+00  0.9222E+00
     -2.897  0.1336E+00  0.9309E+00
     -2.833  0.2081E-01  0.9322E+00
     -2.768 -0.2893E-01  0.9303E+00
     -2.703 -0.2766E-01  0.9285E+00
     -2.638  0.1105E-01  0.9293E+00
     -2.574  0.8133E-01  0.9345E+00
     -2.509  0.1603E+00  0.9449E+00
     -2.444  0.2016E+00  0.9580E+00
     -2.379  0.1721E+00  0.9691E+00
     -2.315  0.9033E-01  0.9749E+00
     -2.250  0.1941E-01  0.9762E+00
     -2.185  0.2745E-01  0.9780E+00
     -2.120  0.1508E+00  0.9877E+00
     -2.055  0.3640E+00  0.1011E+01
     -1.991  0.5697E+00  0.1048E+01
     -1.926  0.6477E+00  0.1090E+01
     -1.861  0.5480E+00  0.1126E+01
     -1.796  0.3348E+00  0.1147E+01
     -1.732  0.1302E+00  0.1156E+01
     -1.667  0.2335E-01  0.1157E+01
     -1.602  0.2976E-01  0.1159E+01
     -1.537  0.1046E+00  0.1166E+01
     -1.473  0.1768E+00  0.1177E+01
     -1.408  0.1927E+00  0.1190E+01
     -1.343  0.1529E+00  0.1200E+01
     -1.278  0.1100E+00  0.1207E+01
     -1.214  0.1236E+00  0.1215E+01
     -1.149  0.2116E+00  0.1229E+01
     -1.084  0.3297E+00  0.1250E+01
     -1.019  0.4061E+00  0.1276E+01
     -0.955  0.4170E+00  0.1303E+01
     -0.890  0.4215E+00  0.1331E+01
     -0.825  0.5016E+00  0.1363E+01
     -0.760  0.6762E+00  0.1407E+01
     -0.696  0.8697E+00  0.1463E+01
     -0.631  0.9472E+00  0.1525E+01
     -0.566  0.8118E+00  0.1577E+01
     -0.501  0.5070E+00  0.1610E+01
     -0.437  0.2050E+00  0.1623E+01
     -0.372  0.6854E-01  0.1628E+01
     -0.307  0.1298E+00  0.1636E+01
     -0.242  0.2878E+00  0.1655E+01
     -0.177  0.3991E+00  0.1681E+01
     -0.113  0.3861E+00  0.1706E+01
     -0.048  0.2803E+00  0.1724E+01
      0.017  0.1651E+00  0.1734E+01
      0.082  0.9719E-01  0.1741E+01
      0.146  0.9027E-01  0.1746E+01
      0.211  0.1386E+00  0.1755E+01
      0.276  0.2293E+00  0.1770E+01
      0.341  0.3415E+00  0.1792E+01
      0.405  0.4392E+00  0.1821E+01
      0.470  0.4697E+00  0.1851E+01
      0.535  0.3965E+00  0.1877E+01
      0.600  0.2458E+00  0.1893E+01
      0.664  0.9514E-01  0.1899E+01
      0.729  0.4619E-02  0.1899E+01
      0.794 -0.2296E-01  0.1898E+01
      0.859 -0.1893E-01  0.1897E+01
      0.923 -0.1050E-01  0.1896E+01
      0.988 -0.9401E-02  0.1895E+01
      1.053 -0.1944E-01  0.1894E+01
      1.118 -0.3920E-01  0.1892E+01
      1.182 -0.4815E-01  0.1888E+01
      1.247  0.1071E-01  0.1889E+01
      1.312  0.2092E+00  0.1903E+01
      1.377  0.5478E+00  0.1938E+01
      1.441  0.8810E+00  0.1995E+01
      1.506  0.9932E+00  0.2060E+01
      1.571  0.8022E+00  0.2111E+01
      1.636  0.4601E+00  0.2141E+01
      1.701  0.2122E+00  0.2155E+01
      1.765  0.1786E+00  0.2167E+01
      1.830  0.2878E+00  0.2185E+01
      1.895  0.3857E+00  0.2210E+01
      1.960  0.3835E+00  0.2235E+01
      2.024  0.3326E+00  0.2257E+01
      2.089  0.3836E+00  0.2281E+01
      2.154  0.6517E+00  0.2324E+01
      2.219  0.1081E+01  0.2394E+01
      2.283  0.1437E+01  0.2487E+01
      2.348  0.1478E+01  0.2582E+01
      2.413  0.1155E+01  0.2657E+01
      2.478  0.6503E+00  0.2699E+01
      2.542  0.2132E+00  0.2713E+01
      2.607 -0.3228E-01  0.2711E+01
      2.672 -0.1120E+00  0.2704E+01
      2.737 -0.8932E-01  0.2698E+01
      2.801  0.3085E-01  0.2700E+01
      2.866  0.2877E+00  0.2719E+01
      2.931  0.6730E+00  0.2762E+01
      2.996  0.1077E+01  0.2832E+01
      3.060  0.1349E+01  0.2919E+01
      3.125  0.1410E+01  0.3011E+01
      3.190  0.1296E+01  0.3094E+01
      3.255  0.1082E+01  0.3165E+01
      3.319  0.8380E+00  0.3219E+01
      3.384  0.6434E+00  0.3260E+01
      3.449  0.5871E+00  0.3298E+01
      3.514  0.6714E+00  0.3342E+01
      3.578  0.7565E+00  0.3391E+01
      3.643  0.6951E+00  0.3436E+01
      3.708  0.5170E+00  0.3469E+01
      3.773  0.3953E+00  0.3495E+01
      3.838  0.4267E+00  0.3523E+01
      3.902  0.5297E+00  0.3557E+01
      3.967  0.5816E+00  0.3595E+01
      4.032  0.5761E+00  0.3632E+01
      4.097  0.5884E+00  0.3670E+01
      4.161  0.6453E+00  0.3712E+01
      4.226  0.7130E+00  0.3758E+01
      4.291  0.7799E+00  0.3809E+01
      4.356  0.8666E+00  0.3865E+01
      4.420  0.9522E+00  0.3926E+01
      4.485  0.9518E+00  0.3988E+01
      4.550  0.7960E+00  0.4039E+01
      4.615  0.5137E+00  0.4073E+01
      4.679  0.2228E+00  0.4087E+01
      4.744  0.4596E-01  0.4090E+01
      4.809  0.4020E-01  0.4093E+01
      4.874  0.1787E+00  0.4104E+01
      4.938  0.3616E+00  0.4128E+01
      5.003  0.4618E+00  0.4158E+01
      5.068  0.4100E+00  0.4184E+01
      5.133  0.2484E+00  0.4200E+01
      5.197  0.8584E-01  0.4206E+01
      5.262  0.5125E-02  0.4206E+01
      5.327  0.2192E-01  0.4208E+01
      5.392  0.9984E-01  0.4214E+01
      5.456  0.1776E+00  0.4226E+01
      5.521  0.2017E+00  0.4239E+01
      5.586  0.1633E+00  0.4249E+01
      5.651  0.1017E+00  0.4256E+01
      5.716  0.5953E-01  0.4260E+01
      5.780  0.4379E-01  0.4262E+01
      5.845  0.3514E-01  0.4265E+01
      5.910  0.1972E-01  0.4266E+01
      5.975  0.1261E-02  0.4266E+01
      6.039 -0.7568E-02  0.4266E+01
      6.104  0.6402E-02  0.4266E+01
      6.169  0.5111E-01  0.4269E+01
      6.234  0.1181E+00  0.4277E+01
      6.298  0.1763E+00  0.4288E+01
      6.363  0.1893E+00  0.4301E+01
      6.428  0.1464E+00  0.4310E+01
      6.493  0.7342E-01  0.4315E+01
      6.557  0.1337E-01  0.4316E+01
      6.622  0.1833E-02  0.4316E+01
      6.687  0.5470E-01  0.4319E+01
      6.752  0.1556E+00  0.4330E+01
      6.816  0.2486E+00  0.4346E+01
      6.881  0.2713E+00  0.4363E+01
      6.946  0.2252E+00  0.4378E+01
      7.011  0.1983E+00  0.4391E+01
      7.075  0.2807E+00  0.4409E+01
      7.140  0.4472E+00  0.4438E+01
      7.205  0.5551E+00  0.4474E+01
      7.270  0.4860E+00  0.4505E+01
      7.334  0.2761E+00  0.4523E+01
      7.399  0.9428E-01  0.4529E+01
      7.464  0.1086E+00  0.4536E+01
      7.529  0.3636E+00  0.4560E+01
      7.593  0.7281E+00  0.4607E+01
      7.658  0.9652E+00  0.4669E+01
      7.723  0.9267E+00  0.4729E+01
      7.788  0.6990E+00  0.4775E+01
      7.853  0.5185E+00  0.4808E+01
      7.917  0.5448E+00  0.4844E+01
      7.982  0.7488E+00  0.4892E+01
      8.047  0.9838E+00  0.4956E+01
      8.112  0.1111E+01  0.5028E+01
      8.176  0.1075E+01  0.5097E+01
      8.241  0.9161E+00  0.5157E+01
      8.306  0.7068E+00  0.5202E+01
      8.371  0.5024E+00  0.5235E+01
      8.435  0.3377E+00  0.5257E+01
      8.500  0.2392E+00  0.5272E+01
      8.565  0.2142E+00  0.5286E+01
      8.630  0.2488E+00  0.5302E+01
      8.694  0.3159E+00  0.5323E+01
      8.759  0.3685E+00  0.5347E+01
      8.824  0.3503E+00  0.5369E+01
      8.889  0.2489E+00  0.5385E+01
      8.953  0.1177E+00  0.5393E+01
      9.018  0.2454E-01  0.5395E+01
      9.083 -0.6456E-02  0.5394E+01
      9.148  0.3761E-02  0.5394E+01
      9.212  0.2263E-01  0.5396E+01
      9.277  0.3016E-01  0.5398E+01
      9.342  0.2378E-01  0.5399E+01
      9.407  0.1166E-01  0.5400E+01
      9.471  0.2339E-02  0.5400E+01
      9.536 -0.1469E-02  0.5400E+01
      9.601 -0.1699E-02  0.5400E+01
      9.666 -0.9220E-03  0.5400E+01
      9.731 -0.3411E-03  0.5400E+01
      9.795 -0.9375E-04  0.5400E+01
      9.860 -0.1981E-04  0.5400E+01
      9.925 -0.3275E-05  0.5400E+01
      9.990 -0.4280E-06  0.5400E+01
     10.054 -0.4448E-07  0.5400E+01
     10.119 -0.3694E-08  0.5400E+01
     10.184 -0.2457E-09  0.5400E+01
     10.249 -0.1313E-10  0.5400E+01
     10.313 -0.5644E-12  0.5400E+01
     10.378 -0.1952E-13  0.5400E+01
     10.443 -0.5715E-15  0.5400E+01
     10.508  0.0000E+00  0.5400E+01
     10.572  0.0000E+00  0.5400E+01
     10.637  0.0000E+00  0.5400E+01
     10.702  0.0000E+00  0.5400E+01
     10.767  0.0000E+00  0.5400E+01
     10.831  0.0000E+00  0.5400E+01
     10.896  0.0000E+00  0.5400E+01
     10.961  0.0000E+00  0.5400E+01
     11.026  0.0000E+00  0.5400E+01
     11.090  0.0000E+00  0.5400E+01
     11.155  0.0000E+00  0.5400E+01
     11.220  0.0000E+00  0.5400E+01
