       N       E                     dE             d eps       ncg     rms          rms(c)
DAV:   1     0.555804707810E+03    0.55580E+03   -0.83694E+04  1296   0.106E+03
DAV:   2    -0.309906729313E+03   -0.86571E+03   -0.82147E+03  1536   0.172E+02
DAV:   3    -0.372982226243E+03   -0.63075E+02   -0.61823E+02  1568   0.409E+01
DAV:   4    -0.374664277786E+03   -0.16821E+01   -0.16700E+01  1552   0.800E+00
DAV:   5    -0.374715560020E+03   -0.51282E-01   -0.51178E-01  1510   0.132E+00    0.279E+01
RMM:   6    -0.369822199438E+03    0.48934E+01   -0.24101E+00  1296   0.242E+00    0.168E+01
RMM:   7    -0.367570632286E+03    0.22516E+01   -0.62841E+00  1322   0.391E+00    0.931E-01
RMM:   8    -0.367608697552E+03   -0.38065E-01   -0.55290E-01  1310   0.148E+00    0.480E-01
RMM:   9    -0.367626680108E+03   -0.17983E-01   -0.16517E-01  1322   0.726E-01    0.564E-01
RMM:  10    -0.367629569675E+03   -0.28896E-02   -0.28950E-02  1354   0.344E-01    0.682E-01
RMM:  11    -0.367628071930E+03    0.14977E-02   -0.95577E-03  1296   0.203E-01    0.819E-01
RMM:  12    -0.367627955941E+03    0.11599E-03   -0.17209E-03  1304   0.978E-02    0.981E-01
RMM:  13    -0.367628101843E+03   -0.14590E-03   -0.33053E-04  1368   0.421E-02    0.956E-01
RMM:  14    -0.367626376640E+03    0.17252E-02   -0.67685E-04  1296   0.575E-02    0.151E+00
RMM:  15    -0.367626156066E+03    0.22057E-03   -0.16016E-04  1299   0.257E-02    0.166E+00
RMM:  16    -0.367626243714E+03   -0.87647E-04   -0.20131E-05  1338   0.954E-03    0.162E+00
RMM:  17    -0.367627310177E+03   -0.10665E-02   -0.16341E-04  1350   0.268E-02    0.104E+00
RMM:  18    -0.367628459247E+03   -0.11491E-02   -0.57836E-04  1747   0.535E-02    0.293E-01
RMM:  19    -0.367628593289E+03   -0.13404E-03   -0.17536E-04  1324   0.278E-02    0.366E-02
RMM:  20    -0.367628600875E+03   -0.75859E-05   -0.46774E-05  1300   0.130E-02    0.337E-03
RMM:  21    -0.367628601367E+03   -0.49159E-06   -0.66531E-06  1076   0.503E-03
   1 F= -.36762860E+03 E0= -.36763699E+03  d E =-.367629E+03
       N       E                     dE             d eps       ncg     rms          rms(c)
DAV:   1    -0.367634210866E+03   -0.56100E-02   -0.14062E-01  1440   0.643E-01    0.379E-01
RMM:   2    -0.367631489767E+03    0.27211E-02   -0.43616E-03  1296   0.125E-01    0.226E-01
RMM:   3    -0.367630096196E+03    0.13936E-02   -0.34429E-03  1296   0.101E-01    0.413E-02
RMM:   4    -0.367630137806E+03   -0.41610E-04   -0.31682E-04  1296   0.416E-02    0.459E-02
RMM:   5    -0.367630144178E+03   -0.63726E-05   -0.64780E-05  1323   0.175E-02    0.599E-02
RMM:   6    -0.367630165864E+03   -0.21686E-04   -0.26563E-05  1296   0.107E-02    0.493E-02
RMM:   7    -0.367630167601E+03   -0.17365E-05   -0.68709E-06  1288   0.588E-03    0.171E-02
RMM:   8    -0.367630166560E+03    0.10408E-05   -0.11168E-06   773   0.289E-03    0.160E-02
RMM:   9    -0.367630165615E+03    0.94507E-06   -0.41950E-07   769   0.136E-03
   2 F= -.36763017E+03 E0= -.36763875E+03  d E =-.156425E-02
       N       E                     dE             d eps       ncg     rms          rms(c)
DAV:   1    -0.367632404039E+03   -0.22375E-02   -0.22377E-02  1402   0.256E-01    0.151E-01
RMM:   2    -0.367631940906E+03    0.46313E-03   -0.68344E-04  1296   0.498E-02    0.900E-02
RMM:   3    -0.367631672328E+03    0.26858E-03   -0.55513E-04  1296   0.403E-02    0.166E-02
RMM:   4    -0.367631676138E+03   -0.38099E-05   -0.50552E-05  1296   0.167E-02    0.185E-02
RMM:   5    -0.367631677433E+03   -0.12948E-05   -0.10242E-05  1309   0.699E-03    0.238E-02
RMM:   6    -0.367631671637E+03    0.57958E-05   -0.45420E-06  1096   0.432E-03    0.212E-02
RMM:   7    -0.367631667196E+03    0.44408E-05   -0.12571E-06   735   0.241E-03    0.763E-03
RMM:   8    -0.367631667374E+03   -0.17800E-06   -0.15320E-07   722   0.110E-03
   3 F= -.36763167E+03 E0= -.36764018E+03  d E =-.306601E-02
