       N       E                     dE             d eps       ncg     rms          rms(c)
DAV:   1     0.559450354933E+03    0.55945E+03   -0.84006E+04  2592   0.106E+03
DAV:   2    -0.310521743209E+03   -0.86997E+03   -0.82451E+03  3088   0.172E+02
DAV:   3    -0.373240994295E+03   -0.62719E+02   -0.61476E+02  3152   0.409E+01
DAV:   4    -0.374847287302E+03   -0.16063E+01   -0.15953E+01  3128   0.795E+00
DAV:   5    -0.374897707101E+03   -0.50420E-01   -0.50319E-01  3118   0.132E+00    0.290E+01
RMM:   6    -0.369562913083E+03    0.53348E+01   -0.27103E+00  2592   0.257E+00    0.174E+01
RMM:   7    -0.367161210280E+03    0.24017E+01   -0.69251E+00  2640   0.413E+00    0.101E+00
RMM:   8    -0.367203102942E+03   -0.41893E-01   -0.66895E-01  2625   0.158E+00    0.509E-01
RMM:   9    -0.367223669125E+03   -0.20566E-01   -0.19299E-01  2668   0.774E-01    0.585E-01
RMM:  10    -0.367227402512E+03   -0.37334E-02   -0.34056E-02  2735   0.363E-01    0.786E-01
RMM:  11    -0.367224376261E+03    0.30263E-02   -0.11982E-02  2592   0.220E-01    0.632E-01
RMM:  12    -0.367224521610E+03   -0.14535E-03   -0.18040E-03  2609   0.100E-01    0.620E-01
RMM:  13    -0.367224578077E+03   -0.56466E-04   -0.33142E-04  2746   0.406E-02    0.708E-01
RMM:  14    -0.367224600104E+03   -0.22028E-04   -0.94194E-05  2600   0.240E-02    0.325E-01
RMM:  15    -0.367224667100E+03   -0.66995E-04   -0.34269E-05  2641   0.126E-02    0.274E-01
RMM:  16    -0.367224716438E+03   -0.49338E-04   -0.27541E-05  2592   0.119E-02    0.166E-01
RMM:  17    -0.367224727616E+03   -0.11178E-04   -0.96848E-06  2591   0.736E-03    0.635E-02
RMM:  18    -0.367224730235E+03   -0.26195E-05   -0.25181E-06  1691   0.373E-03    0.149E-02
RMM:  19    -0.367224731040E+03   -0.80485E-06   -0.11571E-06  1564   0.236E-03
   1 F= -.36722473E+03 E0= -.36723482E+03  d E =-.367225E+03
       N       E                     dE             d eps       ncg     rms          rms(c)
DAV:   1    -0.367245095086E+03   -0.20365E-01   -0.10947E+00  2944   0.200E+00    0.460E-01
RMM:   2    -0.367250620212E+03   -0.55251E-02   -0.57328E-02  2595   0.501E-01    0.187E-01
RMM:   3    -0.367251419250E+03   -0.79904E-03   -0.89511E-03  2644   0.225E-01    0.793E-02
RMM:   4    -0.367251415808E+03    0.34424E-05   -0.12400E-03  2668   0.936E-02    0.288E-02
RMM:   5    -0.367251425299E+03   -0.94910E-05   -0.21147E-04  2675   0.364E-02    0.630E-03
RMM:   6    -0.367251430284E+03   -0.49854E-05   -0.49410E-05  2787   0.161E-02    0.116E-03
RMM:   7    -0.367251430916E+03   -0.63188E-06   -0.65956E-06  2027   0.575E-03    0.116E-03
RMM:   8    -0.367251431005E+03   -0.89090E-07   -0.12193E-06  1609   0.243E-03
   2 F= -.36725143E+03 E0= -.36725958E+03  d E =-.267000E-01
       N       E                     dE             d eps       ncg     rms          rms(c)
DAV:   1    -0.367254864554E+03   -0.34336E-02   -0.76231E-02  2952   0.527E-01    0.121E-01
RMM:   2    -0.367255241015E+03   -0.37646E-03   -0.38844E-03  2592   0.131E-01    0.498E-02
RMM:   3    -0.367255294988E+03   -0.53973E-04   -0.60348E-04  2642   0.588E-02    0.206E-02
RMM:   4    -0.367255295232E+03   -0.24427E-06   -0.83046E-05  2662   0.245E-02    0.753E-03
RMM:   5    -0.367255295920E+03   -0.68831E-06   -0.14560E-05  2556   0.952E-03    0.156E-03
RMM:   6    -0.367255296208E+03   -0.28764E-06   -0.32310E-06  1791   0.424E-03    0.291E-04
RMM:   7    -0.367255296261E+03   -0.53291E-07   -0.55438E-07  1524   0.170E-03    0.231E-04
RMM:   8    -0.367255296286E+03   -0.24288E-07   -0.14517E-07  1144   0.861E-04
   3 F= -.36725530E+03 E0= -.36726414E+03  d E =-.305652E-01
