<?xml version="1.0" encoding="ISO-8859-1"?>
<modeling>
 <generator>
  <i name="program" type="string">vasp </i>
  <i name="version" type="string">6.4.3  </i>
  <i name="subversion" type="string">19Mar24 (build Oct 21 2024 22:36:34) complex                          parallel </i>
  <i name="platform" type="string">LinuxIFC </i>
  <i name="date" type="string">2024 11 01 </i>
  <i name="time" type="string">22:45:24 </i>
 </generator>
 <incar>
  <i type="string" name="SYSTEM">Si64</i>
  <i type="int" name="ISTART">     0</i>
  <i type="string" name="PREC">Accurate</i>
  <i type="string" name="ALGO">Fast</i>
  <i type="logical" name="ADDGRID"> T  </i>
  <i type="int" name="ICHARG">     2</i>
  <i type="int" name="NELM">    60</i>
  <i type="int" name="NELMIN">     8</i>
  <i type="int" name="IBRION">     2</i>
  <i name="EDIFF">      0.00000100</i>
  <i name="EDIFFG">     -0.01000000</i>
  <i type="int" name="NSW">    60</i>
  <i type="int" name="ISIF">     2</i>
  <i name="ENCUT">    400.00000000</i>
  <i type="string" name="LREAL">Auto</i>
  <i type="int" name="ISMEAR">     1</i>
  <i name="SIGMA">      0.20000000</i>
  <i type="logical" name="LWAVE"> F  </i>
  <i type="logical" name="LCHARG"> F  </i>
  <i type="logical" name="GGA_COMPAT"> F  </i>
  <i type="string" name="GGA">PS</i>
 </incar>
 <primitive_cell>
  <structure name="primitive_cell" >
   <crystal>
    <varray name="basis" >
     <v>      -2.66785314       0.02031350      -2.70848015 </v>
     <v>      -2.66785314       0.02031350       2.70848015 </v>
     <v>       2.64753964       2.68816665      -0.00000000 </v>
    </varray>
    <i name="volume">     39.13978428 </i>
    <varray name="rec_basis" >
     <v>      -0.18602162       0.18321022      -0.18460538 </v>
     <v>      -0.18602162       0.18321022       0.18460538 </v>
     <v>       0.00281140       0.36923184       0.00000000 </v>
    </varray>
   </crystal>
   <varray name="positions" >
    <v>       0.00000000       0.00000000       0.00000000 </v>
    <v>       0.75000000       0.25000000       0.50000000 </v>
   </varray>
  </structure>
  <varray name="primitive_index" >
   <v type="int" >        1 </v>
   <v type="int" >       15 </v>
  </varray>
 </primitive_cell>
 <kpoints>
  <generation param="Gamma">
   <v type="int" name="divisions">       2        2        2 </v>
   <v name="usershift">      0.00000000       0.00000000       0.00000000 </v>
   <v name="genvec1">      0.50000000      -0.00000000       0.00000000 </v>
   <v name="genvec2">     -0.00000000       0.50000000       0.00000000 </v>
   <v name="genvec3">      0.00000000       0.00000000       0.50000000 </v>
   <v name="shift">      0.00000000       0.00000000       0.00000000 </v>
  </generation>
  <varray name="kpointlist" >
   <v>       0.00000000       0.00000000       0.00000000 </v>
   <v>       0.50000000       0.00000000       0.00000000 </v>
   <v>      -0.00000000       0.50000000       0.00000000 </v>
   <v>       0.50000000       0.50000000       0.00000000 </v>
   <v>       0.00000000       0.00000000       0.50000000 </v>
   <v>       0.50000000       0.00000000       0.50000000 </v>
   <v>      -0.00000000       0.50000000       0.50000000 </v>
   <v>       0.50000000       0.50000000       0.50000000 </v>
  </varray>
  <varray name="weights" >
   <v>       0.12500000 </v>
   <v>       0.12500000 </v>
   <v>       0.12500000 </v>
   <v>       0.12500000 </v>
   <v>       0.12500000 </v>
   <v>       0.12500000 </v>
   <v>       0.12500000 </v>
   <v>       0.12500000 </v>
  </varray>
 </kpoints>
 <parameters>
  <separator name="general" >
   <i type="string" name="SYSTEM">Si64</i>
   <i type="logical" name="LCOMPAT"> F  </i>
  </separator>
  <separator name="electronic" >
   <i type="string" name="PREC">accura</i>
   <i name="ENMAX">    400.00000000</i>
   <i name="ENAUG">    322.06900000</i>
   <i name="EDIFF">      0.00000100</i>
   <i type="int" name="IALGO">    68</i>
   <i type="int" name="IWAVPR">    11</i>
   <i type="int" name="NBANDS">   162</i>
   <i type="int" name="NBANDSLOW">    -1</i>
   <i type="int" name="NBANDSHIGH">    -1</i>
   <i name="NELECT">    256.00000000</i>
   <i type="int" name="TURBO">     0</i>
   <i type="int" name="IRESTART">     0</i>
   <i type="int" name="NREBOOT">     0</i>
   <i type="int" name="NMIN">     0</i>
   <i name="EREF">      0.00000000</i>
   <separator name="electronic smearing" >
    <i type="int" name="ISMEAR">     1</i>
    <i name="SIGMA">      0.20000000</i>
    <i name="KSPACING">      0.50000000</i>
    <i type="logical" name="KGAMMA"> T  </i>
    <i type="logical" name="KBLOWUP"> T  </i>
   </separator>
   <separator name="electronic projectors" >
    <i type="logical" name="LREAL"> T  </i>
    <v name="ROPT">     -0.00025000</v>
    <i type="int" name="LMAXPAW">  -100</i>
    <i type="int" name="LMAXMIX">     2</i>
    <i type="logical" name="NLSPLINE"> F  </i>
   </separator>
   <separator name="electronic startup" >
    <i type="int" name="ISTART">     0</i>
    <i type="int" name="ICHARG">     2</i>
    <i type="int" name="INIWAV">     1</i>
   </separator>
   <separator name="electronic spin" >
    <i type="int" name="ISPIN">     1</i>
    <i type="logical" name="LNONCOLLINEAR"> F  </i>
    <v name="MAGMOM">      1.00000000      1.00000000      1.00000000      1.00000000      1.00000000      1.00000000      1.00000000      1.00000000      1.00000000      1.00000000      1.00000000      1.00000000      1.00000000      1.00000000      1.00000000      1.00000000      1.00000000      1.00000000      1.00000000      1.00000000
      1.00000000      1.00000000      1.00000000      1.00000000      1.00000000      1.00000000      1.00000000      1.00000000      1.00000000      1.00000000      1.00000000      1.00000000      1.00000000      1.00000000      1.00000000      1.00000000      1.00000000      1.00000000      1.00000000      1.00000000
      1.00000000      1.00000000      1.00000000      1.00000000      1.00000000      1.00000000      1.00000000      1.00000000      1.00000000      1.00000000      1.00000000      1.00000000      1.00000000      1.00000000      1.00000000      1.00000000      1.00000000      1.00000000      1.00000000      1.00000000
      1.00000000      1.00000000      1.00000000      1.00000000</v>
    <i name="NUPDOWN">     -1.00000000</i>
    <i type="logical" name="LSORBIT"> F  </i>
    <v name="SAXIS">      0.00000000      0.00000000      1.00000000</v>
    <i type="logical" name="LSPIRAL"> F  </i>
    <v name="QSPIRAL">      0.00000000      0.00000000      0.00000000</v>
    <i type="logical" name="LZEROZ"> F  </i>
   </separator>
   <separator name="electronic exchange-correlation" >
    <i type="logical" name="LASPH"> F  </i>
   </separator>
   <separator name="electronic convergence" >
    <i type="int" name="NELM">    60</i>
    <i type="int" name="NELMDL">    -5</i>
    <i type="int" name="NELMIN">     8</i>
    <i name="ENINI">    400.00000000</i>
    <separator name="electronic convergence detail" >
     <i type="logical" name="LDIAG"> T  </i>
     <i type="logical" name="LSUBROT"> F  </i>
     <i name="WEIMIN">      0.00100000</i>
     <i name="EBREAK">      0.00000000</i>
     <i name="DEPER">      0.30000000</i>
     <i type="int" name="NRMM">     4</i>
     <i name="TIME">      0.40000000</i>
    </separator>
   </separator>
   <separator name="electronic mixer" >
    <i name="AMIX">      0.40000000</i>
    <i name="BMIX">      1.00000000</i>
    <i name="AMIN">      0.10000000</i>
    <i name="AMIX_MAG">      1.60000000</i>
    <i name="BMIX_MAG">      1.00000000</i>
    <separator name="electronic mixer details" >
     <i type="int" name="IMIX">     4</i>
     <i type="logical" name="MIXFIRST"> F  </i>
     <i type="int" name="MAXMIX">   -45</i>
     <i name="WC">    100.00000000</i>
     <i type="int" name="INIMIX">     1</i>
     <i type="int" name="MIXPRE">     1</i>
     <i type="int" name="MREMOVE">     5</i>
    </separator>
   </separator>
   <separator name="electronic dipolcorrection" >
    <i type="logical" name="LDIPOL"> F  </i>
    <i type="logical" name="LMONO"> F  </i>
    <i type="int" name="IDIPOL">     0</i>
    <i name="EPSILON">      1.00000000</i>
    <v name="DIPOL">   -100.00000000   -100.00000000   -100.00000000</v>
    <i name="EFIELD">      0.00000000</i>
    <i type="logical" name="LVACPOTAV"> F  </i>
   </separator>
  </separator>
  <separator name="grids" >
   <i type="int" name="NGX">    70</i>
   <i type="int" name="NGY">    72</i>
   <i type="int" name="NGZ">    72</i>
   <i type="int" name="NGXF">   140</i>
   <i type="int" name="NGYF">   144</i>
   <i type="int" name="NGZF">   144</i>
   <i type="logical" name="ADDGRID"> T  </i>
  </separator>
  <separator name="ionic" >
   <i type="int" name="NSW">    60</i>
   <i type="int" name="IBRION">     2</i>
   <i type="int" name="MDALGO">     0</i>
   <i type="int" name="ISIF">     2</i>
   <i name="PSTRESS">      0.00000000</i>
   <i name="EDIFFG">     -0.01000000</i>
   <i type="int" name="NFREE">     1</i>
   <i name="POTIM">      0.50000000</i>
   <i name="SMASS">     -3.00000000</i>
   <i name="SCALEE">      1.00000000</i>
  </separator>
  <separator name="ionic md" >
   <i name="TEBEG">      0.00010000</i>
   <i name="TEEND">      0.00010000</i>
   <i type="int" name="NBLOCK">     1</i>
   <i type="int" name="KBLOCK">    60</i>
   <i type="int" name="NPACO">   256</i>
   <i name="APACO">     10.00000000</i>
  </separator>
  <separator name="symmetry" >
   <i type="int" name="ISYM">     2</i>
   <i name="SYMPREC">      0.00001000</i>
  </separator>
  <separator name="dos" >
   <i type="int" name="LORBIT">     0</i>
   <v name="RWIGS">     -1.00000000</v>
   <i type="int" name="NEDOS">   301</i>
   <i name="EMIN">     10.00000000</i>
   <i name="EMAX">    -10.00000000</i>
   <i name="EFERMI">      0.00000000</i>
  </separator>
  <separator name="writing" >
   <i type="int" name="NWRITE">     2</i>
   <i type="logical" name="LWAVE"> F  </i>
   <i type="logical" name="LDOWNSAMPLE"> F  </i>
   <i type="logical" name="LCHARG"> F  </i>
   <i type="logical" name="LPARD"> F  </i>
   <i type="logical" name="LVTOT"> F  </i>
   <i type="logical" name="LVHAR"> F  </i>
   <i type="logical" name="LELF"> F  </i>
   <i type="logical" name="LOPTICS"> F  </i>
   <v name="STM">      0.00000000      0.00000000      0.00000000      0.00000000      0.00000000      0.00000000      0.00000000</v>
  </separator>
  <separator name="performance" >
   <i type="int" name="NPAR">     2</i>
   <i type="int" name="NSIM">     4</i>
   <i type="int" name="NBLK">    -1</i>
   <i type="logical" name="LPLANE"> T  </i>
   <i type="logical" name="LSCALAPACK"> T  </i>
   <i type="logical" name="LSCAAWARE"> F  </i>
   <i type="logical" name="LSCALU"> F  </i>
   <i type="logical" name="LASYNC"> F  </i>
   <i type="logical" name="LORBITALREAL"> F  </i>
  </separator>
  <separator name="miscellaneous" >
   <i type="int" name="IDIOT">     3</i>
   <i type="int" name="PHON_NSTRUCT">    -1</i>
   <i type="logical" name="LMUSIC"> F  </i>
   <v name="POMASS">     28.08500000</v>
   <v name="DARWINR">      0.00000000</v>
   <v name="DARWINV">      1.00000000</v>
   <i type="logical" name="LCORR"> T  </i>
  </separator>
  <i type="logical" name="GGA_COMPAT"> F  </i>
  <i type="logical" name="LBERRY"> F  </i>
  <i type="int" name="ICORELEVEL">     0</i>
  <i type="logical" name="LDAU"> F  </i>
  <i type="int" name="I_CONSTRAINED_M">     0</i>
  <separator name="electronic exchange-correlation" >
   <i type="string" name="GGA    ">PS</i>
   <i type="string" name="XC_C">1</i>
   <i type="int" name="VOSKOWN">     0</i>
   <i type="logical" name="LHFCALC"> F  </i>
   <i type="string" name="PRECFOCK"></i>
   <i type="logical" name="LSYMGRAD"> F  </i>
   <i type="logical" name="LHFONE"> F  </i>
   <i type="logical" name="LRHFCALC"> F  </i>
   <i type="logical" name="LTHOMAS"> F  </i>
   <i type="logical" name="LMODELHF"> F  </i>
   <i type="logical" name="LFOCKACE"> F  </i>
   <i name="ENCUT4O">     -1.00000000</i>
   <i type="int" name="EXXOEP">     0</i>
   <i type="int" name="FOURORBIT">     0</i>
   <i name="AEXX">      0.00000000</i>
   <i name="HFALPHA">      0.00000000</i>
   <i name="MCALPHA">      0.00000000</i>
   <i name="ALDAX">      1.00000000</i>
   <i name="AGGAX">      1.00000000</i>
   <i name="AMGGAX">      1.00000000</i>
   <i name="ALDAC">      1.00000000</i>
   <i name="AGGAC">      1.00000000</i>
   <i name="AMGGAC">      1.00000000</i>
   <i type="int" name="NKREDX">     1</i>
   <i type="int" name="NKREDY">     1</i>
   <i type="int" name="NKREDZ">     1</i>
   <i type="logical" name="SHIFTRED"> F  </i>
   <i type="logical" name="ODDONLY"> F  </i>
   <i type="logical" name="EVENONLY"> F  </i>
   <i type="int" name="LMAXFOCK">     0</i>
   <i type="int" name="NMAXFOCKAE">     0</i>
   <i type="logical" name="LFOCKAEDFT"> F  </i>
   <i name="HFSCREEN">      0.00000000</i>
   <i name="HFSCREENC">      0.00000000</i>
   <i type="int" name="NBANDSGWLOW">     0</i>
  </separator>
  <separator name="vdW DFT" >
   <i type="logical" name="LUSE_VDW"> F  </i>
   <i type="int" name="IVDW_NL">    -1</i>
   <i type="logical" name="LSPIN_VDW"> F  </i>
   <i name="ZAB_VDW">     -0.84910000</i>
   <i name="GAMMA_VDW">      1.39626340</i>
   <i name="ALPHA_VDW">      0.00000000</i>
   <i name="PARAM1">      0.12340000</i>
   <i name="PARAM2">      1.00000000</i>
   <i name="BPARAM">      6.30000000</i>
   <i name="CPARAM">      0.00930000</i>
  </separator>
  <separator name="model GW" >
   <i type="int" name="MODEL_GW">     0</i>
   <i name="MODEL_EPS0">     11.74193529</i>
   <i name="MODEL_ALPHA">      1.00000000</i>
  </separator>
  <separator name="linear response parameters" >
   <i type="logical" name="LEPSILON"> F  </i>
   <i type="logical" name="LRPA"> F  </i>
   <i type="logical" name="LNABLA"> F  </i>
   <i type="logical" name="LVEL"> F  </i>
   <i name="CSHIFT">      0.10000000</i>
   <i name="OMEGAMAX">     -1.00000000</i>
   <i name="DEG_THRESHOLD">      0.00200000</i>
   <i name="RTIME">     -0.10000000</i>
   <i name="WPLASMAI">      0.00000000</i>
   <v name="DFIELD">      0.00000000      0.00000000      0.00000000</v>
   <v name="WPLASMA">      0.00000000      0.00000000      0.00000000      0.00000000      0.00000000      0.00000000      0.00000000      0.00000000      0.00000000</v>
  </separator>
  <separator name="orbital magnetization" >
   <i type="logical" name="NUCIND"> F  </i>
   <v name="MAGPOS">      0.00000000      0.00000000      0.00000000</v>
   <i type="logical" name="LNICSALL"> T  </i>
   <i type="logical" name="ORBITALMAG"> F  </i>
   <i type="logical" name="LMAGBLOCH"> F  </i>
   <i type="logical" name="LCHIMAG"> F  </i>
   <i type="logical" name="LGAUGE"> T  </i>
   <i type="int" name="MAGATOM">     0</i>
   <v name="MAGDIPOL">      0.00000000      0.00000000      0.00000000</v>
   <v name="AVECCONST">      0.00000000      0.00000000      0.00000000</v>
  </separator>
  <separator name="response functions" >
   <i type="logical" name="LALL_IN_ONE"> F  </i>
   <i type="int" name="IALL_IN_ONE">    -1</i>
   <i type="int" name="NBANDS_WAVE">    -1</i>
   <i type="logical" name="LFINITE_TEMPERATURE"> F  </i>
   <i type="logical" name="LADDER"> F  </i>
   <i type="logical" name="LRPAFORCE"> F  </i>
   <i type="logical" name="LFXC"> F  </i>
   <i type="logical" name="LHARTREE"> T  </i>
   <i type="int" name="IBSE">     0</i>
   <v type="int" name="KPOINT">    -1     0     0     0</v>
   <i type="logical" name="LTCTC"> F  </i>
   <i type="logical" name="LTCTE"> F  </i>
   <i type="logical" name="LTETE"> F  </i>
   <i type="logical" name="LTRIPLET"> F  </i>
   <i type="logical" name="LFXCEPS"> F  </i>
   <i type="logical" name="LFXHEG"> F  </i>
   <i type="int" name="NATURALO">     2</i>
   <i type="logical" name="LHOLEGF"> F  </i>
   <i type="logical" name="L2ORDER"> F  </i>
   <i type="logical" name="LDMP1"> F  </i>
   <i type="logical" name="LMP2LT"> F  </i>
   <i type="logical" name="LSMP2LT"> F  </i>
   <i type="logical" name="LGWLF"> F  </i>
   <i name="ENCUTGW">     -1.60000002</i>
   <i name="ENCUTGWSOFT">     -1.60000002</i>
   <i name="ENCUTLF">     -1.00000000</i>
   <i type="logical" name="ESF_SPLINES"> F  </i>
   <i name="ESF_CONV">      0.01000000</i>
   <i type="int" name="ESF_NINTER">    15</i>
   <i type="int" name="LMAXMP2">    -1</i>
   <i name="SCISSOR">      0.00000000</i>
   <i type="int" name="NOMEGA">     0</i>
   <i type="int" name="NOMEGAR">     0</i>
   <i type="int" name="NBANDSGW">    -1</i>
   <i type="int" name="NBANDSO">    -1</i>
   <i type="int" name="NBANDSV">    -1</i>
   <i type="int" name="NELMGW">     1</i>
   <i type="int" name="NELMHF">     1</i>
   <i type="int" name="DIM">     3</i>
   <i type="int" name="IESPILON">     4</i>
   <i type="int" name="ANTIRES">     0</i>
   <i name="OMEGAMAX">    -30.00000000</i>
   <i name="OMEGAMIN">    -30.00000000</i>
   <i name="OMEGATL">   -200.00000000</i>
   <i type="int" name="OMEGAGRID">     0</i>
   <i name="CSHIFT">     -0.10000000</i>
   <i type="logical" name="LSELFENERGY"> F  </i>
   <i type="logical" name="LSPECTRAL"> F  </i>
   <i type="logical" name="LSPECTRALGW"> F  </i>
   <i type="logical" name="LSINGLES"> F  </i>
   <i type="logical" name="LFERMIGW"> F  </i>
   <i type="logical" name="ODDONLYGW"> F  </i>
   <i type="logical" name="EVENONLYGW"> F  </i>
   <i type="int" name="NKREDLFX">     1</i>
   <i type="int" name="NKREDLFY">     1</i>
   <i type="int" name="NKREDLFZ">     1</i>
   <i type="int" name="MAXMEM">  2800</i>
   <i type="int" name="TELESCOPE">     0</i>
   <i type="int" name="NTAUPAR">    -1</i>
   <i type="int" name="NOMEGAPAR">    -1</i>
   <i name="DAMP_NEWTON">      0.80000001</i>
   <i name="LAMBDA">      1.00000000</i>
  </separator>
  <separator name="External order field" >
   <i name="OFIELD_KAPPA">      0.00000000</i>
   <v name="OFIELD_K">      0.00000000      0.00000000      0.00000000</v>
   <i name="OFIELD_Q6_NEAR">      0.00000000</i>
   <i name="OFIELD_Q6_FAR">      0.00000000</i>
   <i name="OFIELD_A">      0.00000000</i>
  </separator>
  <separator name="optional k-points parameters" >
   <i type="int" name="KPOINTS_OPT_MODE">     1</i>
   <i type="logical" name="LKPOINTS_OPT"> F  </i>
  </separator>
 </parameters>
 <atominfo>
  <atoms>      64 </atoms>
  <types>       1 </types>
  <array name="atoms" >
   <dimension dim="1">ion</dimension>
   <field type="string">element</field>
   <field type="int">atomtype</field>
   <set>
    <rc><c>Si</c><c>   1</c></rc>
    <rc><c>Si</c><c>   1</c></rc>
    <rc><c>Si</c><c>   1</c></rc>
    <rc><c>Si</c><c>   1</c></rc>
    <rc><c>Si</c><c>   1</c></rc>
    <rc><c>Si</c><c>   1</c></rc>
    <rc><c>Si</c><c>   1</c></rc>
    <rc><c>Si</c><c>   1</c></rc>
    <rc><c>Si</c><c>   1</c></rc>
    <rc><c>Si</c><c>   1</c></rc>
    <rc><c>Si</c><c>   1</c></rc>
    <rc><c>Si</c><c>   1</c></rc>
    <rc><c>Si</c><c>   1</c></rc>
    <rc><c>Si</c><c>   1</c></rc>
    <rc><c>Si</c><c>   1</c></rc>
    <rc><c>Si</c><c>   1</c></rc>
    <rc><c>Si</c><c>   1</c></rc>
    <rc><c>Si</c><c>   1</c></rc>
    <rc><c>Si</c><c>   1</c></rc>
    <rc><c>Si</c><c>   1</c></rc>
    <rc><c>Si</c><c>   1</c></rc>
    <rc><c>Si</c><c>   1</c></rc>
    <rc><c>Si</c><c>   1</c></rc>
    <rc><c>Si</c><c>   1</c></rc>
    <rc><c>Si</c><c>   1</c></rc>
    <rc><c>Si</c><c>   1</c></rc>
    <rc><c>Si</c><c>   1</c></rc>
    <rc><c>Si</c><c>   1</c></rc>
    <rc><c>Si</c><c>   1</c></rc>
    <rc><c>Si</c><c>   1</c></rc>
    <rc><c>Si</c><c>   1</c></rc>
    <rc><c>Si</c><c>   1</c></rc>
    <rc><c>Si</c><c>   1</c></rc>
    <rc><c>Si</c><c>   1</c></rc>
    <rc><c>Si</c><c>   1</c></rc>
    <rc><c>Si</c><c>   1</c></rc>
    <rc><c>Si</c><c>   1</c></rc>
    <rc><c>Si</c><c>   1</c></rc>
    <rc><c>Si</c><c>   1</c></rc>
    <rc><c>Si</c><c>   1</c></rc>
    <rc><c>Si</c><c>   1</c></rc>
    <rc><c>Si</c><c>   1</c></rc>
    <rc><c>Si</c><c>   1</c></rc>
    <rc><c>Si</c><c>   1</c></rc>
    <rc><c>Si</c><c>   1</c></rc>
    <rc><c>Si</c><c>   1</c></rc>
    <rc><c>Si</c><c>   1</c></rc>
    <rc><c>Si</c><c>   1</c></rc>
    <rc><c>Si</c><c>   1</c></rc>
    <rc><c>Si</c><c>   1</c></rc>
    <rc><c>Si</c><c>   1</c></rc>
    <rc><c>Si</c><c>   1</c></rc>
    <rc><c>Si</c><c>   1</c></rc>
    <rc><c>Si</c><c>   1</c></rc>
    <rc><c>Si</c><c>   1</c></rc>
    <rc><c>Si</c><c>   1</c></rc>
    <rc><c>Si</c><c>   1</c></rc>
    <rc><c>Si</c><c>   1</c></rc>
    <rc><c>Si</c><c>   1</c></rc>
    <rc><c>Si</c><c>   1</c></rc>
    <rc><c>Si</c><c>   1</c></rc>
    <rc><c>Si</c><c>   1</c></rc>
    <rc><c>Si</c><c>   1</c></rc>
    <rc><c>Si</c><c>   1</c></rc>
   </set>
  </array>
  <array name="atomtypes" >
   <dimension dim="1">type</dimension>
   <field type="int">atomspertype</field>
   <field type="string">element</field>
   <field>mass</field>
   <field>valence</field>
   <field type="string">pseudopotential</field>
   <set>
    <rc><c>  64</c><c>Si</c><c>     28.08500000</c><c>      4.00000000</c><c>  PAW_PBE Si 05Jan2001                  </c></rc>
   </set>
  </array>
 </atominfo>
 <structure name="initialpos" >
  <crystal>
   <varray name="basis" >
    <v>      10.67141258      -0.08125401       0.00000000 </v>
    <v>      -0.08125401      10.83392060       0.00000000 </v>
    <v>       0.00000000       0.00000000      10.83392060 </v>
   </varray>
   <i name="volume">   1252.47309708 </i>
   <varray name="rec_basis" >
    <v>       0.09371366       0.00070285       0.00000000 </v>
    <v>       0.00070285       0.09230796       0.00000000 </v>
    <v>       0.00000000       0.00000000       0.09230269 </v>
   </varray>
  </crystal>
  <varray name="positions" >
   <v>       0.00000000       0.00000000       0.00000000 </v>
   <v>       0.00000000       0.00000000       0.50000000 </v>
   <v>       0.00000000       0.50000000       0.00000000 </v>
   <v>       0.00000000       0.50000000       0.50000000 </v>
   <v>       0.50000000       0.00000000       0.00000000 </v>
   <v>       0.50000000       0.00000000       0.50000000 </v>
   <v>       0.50000000       0.50000000       0.00000000 </v>
   <v>       0.50000000       0.50000000       0.50000000 </v>
   <v>       0.37500000       0.37500000       0.12500000 </v>
   <v>       0.37500000       0.37500000       0.62500000 </v>
   <v>       0.37500000       0.87500000       0.12500000 </v>
   <v>       0.37500000       0.87500000       0.62500000 </v>
   <v>       0.87500000       0.37500000       0.12500000 </v>
   <v>       0.87500000       0.37500000       0.62500000 </v>
   <v>       0.87500000       0.87500000       0.12500000 </v>
   <v>       0.87500000       0.87500000       0.62500000 </v>
   <v>       0.00000000       0.25000000       0.25000000 </v>
   <v>       0.00000000       0.25000000       0.75000000 </v>
   <v>       0.00000000       0.75000000       0.25000000 </v>
   <v>       0.00000000       0.75000000       0.75000000 </v>
   <v>       0.50000000       0.25000000       0.25000000 </v>
   <v>       0.50000000       0.25000000       0.75000000 </v>
   <v>       0.50000000       0.75000000       0.25000000 </v>
   <v>       0.50000000       0.75000000       0.75000000 </v>
   <v>       0.37500000       0.12500000       0.37500000 </v>
   <v>       0.37500000       0.12500000       0.87500000 </v>
   <v>       0.37500000       0.62500000       0.37500000 </v>
   <v>       0.37500000       0.62500000       0.87500000 </v>
   <v>       0.87500000       0.12500000       0.37500000 </v>
   <v>       0.87500000       0.12500000       0.87500000 </v>
   <v>       0.87500000       0.62500000       0.37500000 </v>
   <v>       0.87500000       0.62500000       0.87500000 </v>
   <v>       0.25000000       0.00000000       0.25000000 </v>
   <v>       0.25000000       0.00000000       0.75000000 </v>
   <v>       0.25000000       0.50000000       0.25000000 </v>
   <v>       0.25000000       0.50000000       0.75000000 </v>
   <v>       0.75000000       0.00000000       0.25000000 </v>
   <v>       0.75000000       0.00000000       0.75000000 </v>
   <v>       0.75000000       0.50000000       0.25000000 </v>
   <v>       0.75000000       0.50000000       0.75000000 </v>
   <v>       0.12500000       0.37500000       0.37500000 </v>
   <v>       0.12500000       0.37500000       0.87500000 </v>
   <v>       0.12500000       0.87500000       0.37500000 </v>
   <v>       0.12500000       0.87500000       0.87500000 </v>
   <v>       0.62500000       0.37500000       0.37500000 </v>
   <v>       0.62500000       0.37500000       0.87500000 </v>
   <v>       0.62500000       0.87500000       0.37500000 </v>
   <v>       0.62500000       0.87500000       0.87500000 </v>
   <v>       0.25000000       0.25000000       0.00000000 </v>
   <v>       0.25000000       0.25000000       0.50000000 </v>
   <v>       0.25000000       0.75000000       0.00000000 </v>
   <v>       0.25000000       0.75000000       0.50000000 </v>
   <v>       0.75000000       0.25000000       0.00000000 </v>
   <v>       0.75000000       0.25000000       0.50000000 </v>
   <v>       0.75000000       0.75000000       0.00000000 </v>
   <v>       0.75000000       0.75000000       0.50000000 </v>
   <v>       0.12500000       0.12500000       0.12500000 </v>
   <v>       0.12500000       0.12500000       0.62500000 </v>
   <v>       0.12500000       0.62500000       0.12500000 </v>
   <v>       0.12500000       0.62500000       0.62500000 </v>
   <v>       0.62500000       0.12500000       0.12500000 </v>
   <v>       0.62500000       0.12500000       0.62500000 </v>
   <v>       0.62500000       0.62500000       0.12500000 </v>
   <v>       0.62500000       0.62500000       0.62500000 </v>
  </varray>
 </structure>
 <calculation>
  <scstep>
   <time name="dav">    1.30    1.38</time>
   <time name="total">    1.49    1.58</time>
   <energy>
    <i name="alphaZ">    110.08953731 </i>
    <i name="ewald">  -7368.75131861 </i>
    <i name="hartreedc">   -341.40164122 </i>
    <i name="XCdc">   -555.92664977 </i>
    <i name="pawpsdc">   5598.62625415 </i>
    <i name="pawaedc">  -4492.17844134 </i>
    <i name="eentropy">     -0.00295097 </i>
    <i name="bandstr">   1044.19970439 </i>
    <i name="atom">   6564.79586099 </i>
    <i name="e_fr_energy">    559.45035493 </i>
    <i name="e_wo_entrp">    559.45330590 </i>
    <i name="e_0_energy">    559.45133859 </i>
   </energy>
  </scstep>
  <scstep>
   <time name="dav">    1.34    1.36</time>
   <time name="total">    1.34    1.36</time>
   <energy>
    <i name="e_fr_energy">   -310.52174321 </i>
    <i name="e_wo_entrp">   -310.52541838 </i>
    <i name="e_0_energy">   -310.52296827 </i>
   </energy>
  </scstep>
  <scstep>
   <time name="dav">    1.37    1.39</time>
   <time name="total">    1.38    1.39</time>
   <energy>
    <i name="e_fr_energy">   -373.24099429 </i>
    <i name="e_wo_entrp">   -373.24775919 </i>
    <i name="e_0_energy">   -373.24324926 </i>
   </energy>
  </scstep>
  <scstep>
   <time name="dav">    1.34    1.36</time>
   <time name="total">    1.34    1.36</time>
   <energy>
    <i name="e_fr_energy">   -374.84728730 </i>
    <i name="e_wo_entrp">   -374.85553979 </i>
    <i name="e_0_energy">   -374.85003813 </i>
   </energy>
  </scstep>
  <scstep>
   <time name="dav">    1.37    1.39</time>
   <time name="total">    1.63    1.66</time>
   <energy>
    <i name="e_fr_energy">   -374.89770710 </i>
    <i name="e_wo_entrp">   -374.90597881 </i>
    <i name="e_0_energy">   -374.90046434 </i>
   </energy>
  </scstep>
  <scstep>
   <time name="diag">    0.14    0.14</time>
   <time name="diis">    0.73    0.73</time>
   <time name="orth">    0.02    0.02</time>
   <time name="total">    1.29    1.31</time>
   <energy>
    <i name="e_fr_energy">   -369.56291308 </i>
    <i name="e_wo_entrp">   -369.57530558 </i>
    <i name="e_0_energy">   -369.56704391 </i>
   </energy>
  </scstep>
  <scstep>
   <time name="diag">    0.13    0.13</time>
   <time name="diis">    0.72    0.73</time>
   <time name="orth">    0.02    0.02</time>
   <time name="total">    1.27    1.29</time>
   <energy>
    <i name="e_fr_energy">   -367.16121028 </i>
    <i name="e_wo_entrp">   -367.19072549 </i>
    <i name="e_0_energy">   -367.17104868 </i>
   </energy>
  </scstep>
  <scstep>
   <time name="diag">    0.13    0.13</time>
   <time name="diis">    0.73    0.73</time>
   <time name="orth">    0.02    0.02</time>
   <time name="total">    1.28    1.30</time>
   <energy>
    <i name="e_fr_energy">   -367.20310294 </i>
    <i name="e_wo_entrp">   -367.23337510 </i>
    <i name="e_0_energy">   -367.21319366 </i>
   </energy>
  </scstep>
  <scstep>
   <time name="diag">    0.13    0.13</time>
   <time name="diis">    0.74    0.74</time>
   <time name="orth">    0.02    0.02</time>
   <time name="total">    1.29    1.31</time>
   <energy>
    <i name="e_fr_energy">   -367.22366913 </i>
    <i name="e_wo_entrp">   -367.25390793 </i>
    <i name="e_0_energy">   -367.23374873 </i>
   </energy>
  </scstep>
  <scstep>
   <time name="diag">    0.13    0.13</time>
   <time name="diis">    0.75    0.76</time>
   <time name="orth">    0.02    0.02</time>
   <time name="total">    1.31    1.33</time>
   <energy>
    <i name="e_fr_energy">   -367.22740251 </i>
    <i name="e_wo_entrp">   -367.25763449 </i>
    <i name="e_0_energy">   -367.23747984 </i>
   </energy>
  </scstep>
  <scstep>
   <time name="diag">    0.13    0.13</time>
   <time name="diis">    0.72    0.72</time>
   <time name="orth">    0.02    0.02</time>
   <time name="total">    1.28    1.30</time>
   <energy>
    <i name="e_fr_energy">   -367.22437626 </i>
    <i name="e_wo_entrp">   -367.25464916 </i>
    <i name="e_0_energy">   -367.23446723 </i>
   </energy>
  </scstep>
  <scstep>
   <time name="diag">    0.13    0.13</time>
   <time name="diis">    0.71    0.72</time>
   <time name="orth">    0.02    0.02</time>
   <time name="total">    1.27    1.31</time>
   <energy>
    <i name="e_fr_energy">   -367.22452161 </i>
    <i name="e_wo_entrp">   -367.25478923 </i>
    <i name="e_0_energy">   -367.23461082 </i>
   </energy>
  </scstep>
  <scstep>
   <time name="diag">    0.13    0.13</time>
   <time name="diis">    0.75    0.76</time>
   <time name="orth">    0.02    0.02</time>
   <time name="total">    1.31    1.33</time>
   <energy>
    <i name="e_fr_energy">   -367.22457808 </i>
    <i name="e_wo_entrp">   -367.25484815 </i>
    <i name="e_0_energy">   -367.23466810 </i>
   </energy>
  </scstep>
  <scstep>
   <time name="diag">    0.13    0.13</time>
   <time name="diis">    0.71    0.72</time>
   <time name="orth">    0.02    0.02</time>
   <time name="total">    1.26    1.28</time>
   <energy>
    <i name="e_fr_energy">   -367.22460010 </i>
    <i name="e_wo_entrp">   -367.25486021 </i>
    <i name="e_0_energy">   -367.23468681 </i>
   </energy>
  </scstep>
  <scstep>
   <time name="diag">    0.13    0.13</time>
   <time name="diis">    0.73    0.73</time>
   <time name="orth">    0.02    0.02</time>
   <time name="total">    1.28    1.30</time>
   <energy>
    <i name="e_fr_energy">   -367.22466710 </i>
    <i name="e_wo_entrp">   -367.25492737 </i>
    <i name="e_0_energy">   -367.23475386 </i>
   </energy>
  </scstep>
  <scstep>
   <time name="diag">    0.14    0.14</time>
   <time name="diis">    0.71    0.72</time>
   <time name="orth">    0.02    0.02</time>
   <time name="total">    1.27    1.29</time>
   <energy>
    <i name="e_fr_energy">   -367.22471644 </i>
    <i name="e_wo_entrp">   -367.25498173 </i>
    <i name="e_0_energy">   -367.23480487 </i>
   </energy>
  </scstep>
  <scstep>
   <time name="diag">    0.14    0.14</time>
   <time name="diis">    0.71    0.72</time>
   <time name="orth">    0.02    0.02</time>
   <time name="total">    1.27    1.29</time>
   <energy>
    <i name="e_fr_energy">   -367.22472762 </i>
    <i name="e_wo_entrp">   -367.25499384 </i>
    <i name="e_0_energy">   -367.23481636 </i>
   </energy>
  </scstep>
  <scstep>
   <time name="diag">    0.13    0.13</time>
   <time name="diis">    0.50    0.51</time>
   <time name="orth">    0.02    0.02</time>
   <time name="total">    1.06    1.08</time>
   <energy>
    <i name="e_fr_energy">   -367.22473024 </i>
    <i name="e_wo_entrp">   -367.25499632 </i>
    <i name="e_0_energy">   -367.23481893 </i>
   </energy>
  </scstep>
  <scstep>
   <time name="diag">    0.13    0.13</time>
   <time name="diis">    0.46    0.46</time>
   <time name="orth">    0.02    0.02</time>
   <time name="total">    0.76    0.78</time>
   <energy>
    <i name="alphaZ">    110.08953731 </i>
    <i name="ewald">  -7368.75131861 </i>
    <i name="hartreedc">   -459.71113718 </i>
    <i name="XCdc">   -535.95457021 </i>
    <i name="pawpsdc">  29173.59768558 </i>
    <i name="pawaedc"> -28074.60464527 </i>
    <i name="eentropy">      0.03026638 </i>
    <i name="bandstr">    223.28358998 </i>
    <i name="atom">   6564.79586099 </i>
    <i name="e_fr_energy">   -367.22473104 </i>
    <i name="e_wo_entrp">   -367.25499742 </i>
    <i name="e_0_energy">   -367.23481983 </i>
   </energy>
  </scstep>
  <structure>
   <crystal>
    <varray name="basis" >
     <v>      10.67141258      -0.08125401       0.00000000 </v>
     <v>      -0.08125401      10.83392060       0.00000000 </v>
     <v>       0.00000000       0.00000000      10.83392060 </v>
    </varray>
    <i name="volume">   1252.47309708 </i>
    <varray name="rec_basis" >
     <v>       0.09371366       0.00070285       0.00000000 </v>
     <v>       0.00070285       0.09230796       0.00000000 </v>
     <v>       0.00000000       0.00000000       0.09230269 </v>
    </varray>
   </crystal>
   <varray name="positions" >
    <v>       0.00000000       0.00000000       0.00000000 </v>
    <v>       0.00000000       0.00000000       0.50000000 </v>
    <v>       0.00000000       0.50000000       0.00000000 </v>
    <v>       0.00000000       0.50000000       0.50000000 </v>
    <v>       0.50000000       0.00000000       0.00000000 </v>
    <v>       0.50000000       0.00000000       0.50000000 </v>
    <v>       0.50000000       0.50000000       0.00000000 </v>
    <v>       0.50000000       0.50000000       0.50000000 </v>
    <v>       0.37500000       0.37500000       0.12500000 </v>
    <v>       0.37500000       0.37500000       0.62500000 </v>
    <v>       0.37500000       0.87500000       0.12500000 </v>
    <v>       0.37500000       0.87500000       0.62500000 </v>
    <v>       0.87500000       0.37500000       0.12500000 </v>
    <v>       0.87500000       0.37500000       0.62500000 </v>
    <v>       0.87500000       0.87500000       0.12500000 </v>
    <v>       0.87500000       0.87500000       0.62500000 </v>
    <v>       0.00000000       0.25000000       0.25000000 </v>
    <v>       0.00000000       0.25000000       0.75000000 </v>
    <v>       0.00000000       0.75000000       0.25000000 </v>
    <v>       0.00000000       0.75000000       0.75000000 </v>
    <v>       0.50000000       0.25000000       0.25000000 </v>
    <v>       0.50000000       0.25000000       0.75000000 </v>
    <v>       0.50000000       0.75000000       0.25000000 </v>
    <v>       0.50000000       0.75000000       0.75000000 </v>
    <v>       0.37500000       0.12500000       0.37500000 </v>
    <v>       0.37500000       0.12500000       0.87500000 </v>
    <v>       0.37500000       0.62500000       0.37500000 </v>
    <v>       0.37500000       0.62500000       0.87500000 </v>
    <v>       0.87500000       0.12500000       0.37500000 </v>
    <v>       0.87500000       0.12500000       0.87500000 </v>
    <v>       0.87500000       0.62500000       0.37500000 </v>
    <v>       0.87500000       0.62500000       0.87500000 </v>
    <v>       0.25000000       0.00000000       0.25000000 </v>
    <v>       0.25000000       0.00000000       0.75000000 </v>
    <v>       0.25000000       0.50000000       0.25000000 </v>
    <v>       0.25000000       0.50000000       0.75000000 </v>
    <v>       0.75000000       0.00000000       0.25000000 </v>
    <v>       0.75000000       0.00000000       0.75000000 </v>
    <v>       0.75000000       0.50000000       0.25000000 </v>
    <v>       0.75000000       0.50000000       0.75000000 </v>
    <v>       0.12500000       0.37500000       0.37500000 </v>
    <v>       0.12500000       0.37500000       0.87500000 </v>
    <v>       0.12500000       0.87500000       0.37500000 </v>
    <v>       0.12500000       0.87500000       0.87500000 </v>
    <v>       0.62500000       0.37500000       0.37500000 </v>
    <v>       0.62500000       0.37500000       0.87500000 </v>
    <v>       0.62500000       0.87500000       0.37500000 </v>
    <v>       0.62500000       0.87500000       0.87500000 </v>
    <v>       0.25000000       0.25000000       0.00000000 </v>
    <v>       0.25000000       0.25000000       0.50000000 </v>
    <v>       0.25000000       0.75000000       0.00000000 </v>
    <v>       0.25000000       0.75000000       0.50000000 </v>
    <v>       0.75000000       0.25000000       0.00000000 </v>
    <v>       0.75000000       0.25000000       0.50000000 </v>
    <v>       0.75000000       0.75000000       0.00000000 </v>
    <v>       0.75000000       0.75000000       0.50000000 </v>
    <v>       0.12500000       0.12500000       0.12500000 </v>
    <v>       0.12500000       0.12500000       0.62500000 </v>
    <v>       0.12500000       0.62500000       0.12500000 </v>
    <v>       0.12500000       0.62500000       0.62500000 </v>
    <v>       0.62500000       0.12500000       0.12500000 </v>
    <v>       0.62500000       0.12500000       0.62500000 </v>
    <v>       0.62500000       0.62500000       0.12500000 </v>
    <v>       0.62500000       0.62500000       0.62500000 </v>
   </varray>
  </structure>
  <varray name="forces" >
   <v>      -0.00000000      -0.00000000      -0.16432660 </v>
   <v>      -0.00000000      -0.00000000      -0.16432660 </v>
   <v>       0.00000000       0.00000000      -0.16432660 </v>
   <v>      -0.00000000       0.00000000      -0.16432660 </v>
   <v>      -0.00000000      -0.00000000      -0.16432660 </v>
   <v>       0.00000000      -0.00000000      -0.16432660 </v>
   <v>       0.00000000       0.00000000      -0.16432660 </v>
   <v>       0.00000000       0.00000000      -0.16432660 </v>
   <v>       0.00000000       0.00000000       0.16432660 </v>
   <v>      -0.00000000       0.00000000       0.16432660 </v>
   <v>       0.00000000      -0.00000000       0.16432660 </v>
   <v>       0.00000000      -0.00000000       0.16432660 </v>
   <v>       0.00000000       0.00000000       0.16432660 </v>
   <v>      -0.00000000       0.00000000       0.16432660 </v>
   <v>      -0.00000000      -0.00000000       0.16432660 </v>
   <v>       0.00000000      -0.00000000       0.16432660 </v>
   <v>       0.00000000      -0.00000000      -0.16432660 </v>
   <v>       0.00000000      -0.00000000      -0.16432660 </v>
   <v>      -0.00000000       0.00000000      -0.16432660 </v>
   <v>       0.00000000       0.00000000      -0.16432660 </v>
   <v>      -0.00000000      -0.00000000      -0.16432660 </v>
   <v>      -0.00000000      -0.00000000      -0.16432660 </v>
   <v>      -0.00000000       0.00000000      -0.16432660 </v>
   <v>      -0.00000000       0.00000000      -0.16432660 </v>
   <v>      -0.00000000      -0.00000000       0.16432660 </v>
   <v>       0.00000000      -0.00000000       0.16432660 </v>
   <v>      -0.00000000       0.00000000       0.16432660 </v>
   <v>       0.00000000       0.00000000       0.16432660 </v>
   <v>       0.00000000      -0.00000000       0.16432660 </v>
   <v>       0.00000000      -0.00000000       0.16432660 </v>
   <v>       0.00000000       0.00000000       0.16432660 </v>
   <v>       0.00000000       0.00000000       0.16432660 </v>
   <v>       0.00000000      -0.00000000      -0.16432660 </v>
   <v>      -0.00000000      -0.00000000      -0.16432660 </v>
   <v>       0.00000000       0.00000000      -0.16432660 </v>
   <v>      -0.00000000       0.00000000      -0.16432660 </v>
   <v>      -0.00000000      -0.00000000      -0.16432660 </v>
   <v>      -0.00000000      -0.00000000      -0.16432660 </v>
   <v>       0.00000000       0.00000000      -0.16432660 </v>
   <v>       0.00000000       0.00000000      -0.16432660 </v>
   <v>      -0.00000000       0.00000000       0.16432660 </v>
   <v>      -0.00000000       0.00000000       0.16432660 </v>
   <v>       0.00000000      -0.00000000       0.16432660 </v>
   <v>       0.00000000      -0.00000000       0.16432660 </v>
   <v>      -0.00000000       0.00000000       0.16432660 </v>
   <v>      -0.00000000       0.00000000       0.16432660 </v>
   <v>       0.00000000       0.00000000       0.16432660 </v>
   <v>      -0.00000000      -0.00000000       0.16432660 </v>
   <v>       0.00000000      -0.00000000      -0.16432660 </v>
   <v>      -0.00000000      -0.00000000      -0.16432660 </v>
   <v>      -0.00000000       0.00000000      -0.16432660 </v>
   <v>      -0.00000000       0.00000000      -0.16432660 </v>
   <v>      -0.00000000      -0.00000000      -0.16432660 </v>
   <v>       0.00000000      -0.00000000      -0.16432660 </v>
   <v>      -0.00000000       0.00000000      -0.16432660 </v>
   <v>      -0.00000000       0.00000000      -0.16432660 </v>
   <v>      -0.00000000      -0.00000000       0.16432660 </v>
   <v>      -0.00000000      -0.00000000       0.16432660 </v>
   <v>      -0.00000000       0.00000000       0.16432660 </v>
   <v>      -0.00000000       0.00000000       0.16432660 </v>
   <v>       0.00000000      -0.00000000       0.16432660 </v>
   <v>      -0.00000000      -0.00000000       0.16432660 </v>
   <v>       0.00000000       0.00000000       0.16432660 </v>
   <v>       0.00000000       0.00000000       0.16432660 </v>
  </varray>
  <varray name="stress" >
   <v>      34.23369952      16.74202598       0.00000000 </v>
   <v>      16.74202594      21.28546098       0.00000000 </v>
   <v>       0.00000000       0.00000000      21.15502094 </v>
  </varray>
  <energy>
   <i name="e_fr_energy">   -367.22473104 </i>
   <i name="e_wo_entrp">   -367.25499742 </i>
   <i name="e_0_energy">   -367.23481983 </i>
  </energy>
  <time name="totalsc">   28.02   28.56</time>
 </calculation>
 <calculation>
  <scstep>
   <time name="dav">    1.29    1.30</time>
   <time name="total">    1.70    1.71</time>
   <energy>
    <i name="alphaZ">    110.08953731 </i>
    <i name="ewald">  -7369.26150862 </i>
    <i name="hartreedc">   -459.44822885 </i>
    <i name="XCdc">   -535.96406648 </i>
    <i name="pawpsdc">  29178.91770793 </i>
    <i name="pawaedc"> -28079.92439892 </i>
    <i name="eentropy">      0.02398396 </i>
    <i name="bandstr">    223.52601759 </i>
    <i name="atom">   6564.79586099 </i>
    <i name="e_fr_energy">   -367.24509509 </i>
    <i name="e_wo_entrp">   -367.26907905 </i>
    <i name="e_0_energy">   -367.25308974 </i>
   </energy>
  </scstep>
  <scstep>
   <time name="diag">    0.13    0.13</time>
   <time name="diis">    0.72    0.72</time>
   <time name="orth">    0.02    0.02</time>
   <time name="total">    1.28    1.29</time>
   <energy>
    <i name="e_fr_energy">   -367.25062021 </i>
    <i name="e_wo_entrp">   -367.27456770 </i>
    <i name="e_0_energy">   -367.25860271 </i>
   </energy>
  </scstep>
  <scstep>
   <time name="diag">    0.13    0.13</time>
   <time name="diis">    0.73    0.76</time>
   <time name="orth">    0.02    0.02</time>
   <time name="total">    1.29    1.34</time>
   <energy>
    <i name="e_fr_energy">   -367.25141925 </i>
    <i name="e_wo_entrp">   -367.27559023 </i>
    <i name="e_0_energy">   -367.25947624 </i>
   </energy>
  </scstep>
  <scstep>
   <time name="diag">    0.13    0.13</time>
   <time name="diis">    0.73    0.74</time>
   <time name="orth">    0.02    0.02</time>
   <time name="total">    1.28    1.31</time>
   <energy>
    <i name="e_fr_energy">   -367.25141581 </i>
    <i name="e_wo_entrp">   -367.27579301 </i>
    <i name="e_0_energy">   -367.25954154 </i>
   </energy>
  </scstep>
  <scstep>
   <time name="diag">    0.13    0.13</time>
   <time name="diis">    0.73    0.74</time>
   <time name="orth">    0.02    0.02</time>
   <time name="total">    1.28    1.31</time>
   <energy>
    <i name="e_fr_energy">   -367.25142530 </i>
    <i name="e_wo_entrp">   -367.27587734 </i>
    <i name="e_0_energy">   -367.25957598 </i>
   </energy>
  </scstep>
  <scstep>
   <time name="diag">    0.13    0.13</time>
   <time name="diis">    0.77    0.77</time>
   <time name="orth">    0.02    0.02</time>
   <time name="total">    1.32    1.34</time>
   <energy>
    <i name="e_fr_energy">   -367.25143028 </i>
    <i name="e_wo_entrp">   -367.27588095 </i>
    <i name="e_0_energy">   -367.25958051 </i>
   </energy>
  </scstep>
  <scstep>
   <time name="diag">    0.13    0.13</time>
   <time name="diis">    0.57    0.58</time>
   <time name="orth">    0.02    0.02</time>
   <time name="total">    1.12    1.15</time>
   <energy>
    <i name="e_fr_energy">   -367.25143092 </i>
    <i name="e_wo_entrp">   -367.27588032 </i>
    <i name="e_0_energy">   -367.25958072 </i>
   </energy>
  </scstep>
  <scstep>
   <time name="diag">    0.13    0.13</time>
   <time name="diis">    0.48    0.48</time>
   <time name="orth">    0.02    0.02</time>
   <time name="total">    0.79    0.80</time>
   <energy>
    <i name="alphaZ">    110.08953731 </i>
    <i name="ewald">  -7369.26150862 </i>
    <i name="hartreedc">   -459.35391108 </i>
    <i name="XCdc">   -535.98017638 </i>
    <i name="pawpsdc">  29160.65595428 </i>
    <i name="pawaedc"> -28061.65187188 </i>
    <i name="eentropy">      0.02444962 </i>
    <i name="bandstr">    223.43023475 </i>
    <i name="atom">   6564.79586099 </i>
    <i name="e_fr_energy">   -367.25143101 </i>
    <i name="e_wo_entrp">   -367.27588063 </i>
    <i name="e_0_energy">   -367.25958088 </i>
   </energy>
  </scstep>
  <structure>
   <crystal>
    <varray name="basis" >
     <v>      10.67141258      -0.08125401       0.00000000 </v>
     <v>      -0.08125401      10.83392060       0.00000000 </v>
     <v>       0.00000000       0.00000000      10.83392060 </v>
    </varray>
    <i name="volume">   1252.47309708 </i>
    <varray name="rec_basis" >
     <v>       0.09371366       0.00070285       0.00000000 </v>
     <v>       0.00070285       0.09230796       0.00000000 </v>
     <v>       0.00000000       0.00000000       0.09230269 </v>
    </varray>
   </crystal>
   <varray name="positions" >
    <v>       1.00000000       1.00000000       0.99926827 </v>
    <v>       1.00000000       1.00000000       0.49926827 </v>
    <v>       0.00000000       0.50000000       0.99926827 </v>
    <v>       1.00000000       0.50000000       0.49926827 </v>
    <v>       0.50000000       1.00000000       0.99926827 </v>
    <v>       0.50000000       1.00000000       0.49926827 </v>
    <v>       0.50000000       0.50000000       0.99926827 </v>
    <v>       0.50000000       0.50000000       0.49926827 </v>
    <v>       0.37500000       0.37500000       0.12573173 </v>
    <v>       0.37500000       0.37500000       0.62573173 </v>
    <v>       0.37500000       0.87500000       0.12573173 </v>
    <v>       0.37500000       0.87500000       0.62573173 </v>
    <v>       0.87500000       0.37500000       0.12573173 </v>
    <v>       0.87500000       0.37500000       0.62573173 </v>
    <v>       0.87500000       0.87500000       0.12573173 </v>
    <v>       0.87500000       0.87500000       0.62573173 </v>
    <v>       0.00000000       0.25000000       0.24926827 </v>
    <v>       0.00000000       0.25000000       0.74926827 </v>
    <v>       1.00000000       0.75000000       0.24926827 </v>
    <v>       0.00000000       0.75000000       0.74926827 </v>
    <v>       0.50000000       0.25000000       0.24926827 </v>
    <v>       0.50000000       0.25000000       0.74926827 </v>
    <v>       0.50000000       0.75000000       0.24926827 </v>
    <v>       0.50000000       0.75000000       0.74926827 </v>
    <v>       0.37500000       0.12500000       0.37573173 </v>
    <v>       0.37500000       0.12500000       0.87573173 </v>
    <v>       0.37500000       0.62500000       0.37573173 </v>
    <v>       0.37500000       0.62500000       0.87573173 </v>
    <v>       0.87500000       0.12500000       0.37573173 </v>
    <v>       0.87500000       0.12500000       0.87573173 </v>
    <v>       0.87500000       0.62500000       0.37573173 </v>
    <v>       0.87500000       0.62500000       0.87573173 </v>
    <v>       0.25000000       1.00000000       0.24926827 </v>
    <v>       0.25000000       1.00000000       0.74926827 </v>
    <v>       0.25000000       0.50000000       0.24926827 </v>
    <v>       0.25000000       0.50000000       0.74926827 </v>
    <v>       0.75000000       1.00000000       0.24926827 </v>
    <v>       0.75000000       1.00000000       0.74926827 </v>
    <v>       0.75000000       0.50000000       0.24926827 </v>
    <v>       0.75000000       0.50000000       0.74926827 </v>
    <v>       0.12500000       0.37500000       0.37573173 </v>
    <v>       0.12500000       0.37500000       0.87573173 </v>
    <v>       0.12500000       0.87500000       0.37573173 </v>
    <v>       0.12500000       0.87500000       0.87573173 </v>
    <v>       0.62500000       0.37500000       0.37573173 </v>
    <v>       0.62500000       0.37500000       0.87573173 </v>
    <v>       0.62500000       0.87500000       0.37573173 </v>
    <v>       0.62500000       0.87500000       0.87573173 </v>
    <v>       0.25000000       0.25000000       0.99926827 </v>
    <v>       0.25000000       0.25000000       0.49926827 </v>
    <v>       0.25000000       0.75000000       0.99926827 </v>
    <v>       0.25000000       0.75000000       0.49926827 </v>
    <v>       0.75000000       0.25000000       0.99926827 </v>
    <v>       0.75000000       0.25000000       0.49926827 </v>
    <v>       0.75000000       0.75000000       0.99926827 </v>
    <v>       0.75000000       0.75000000       0.49926827 </v>
    <v>       0.12500000       0.12500000       0.12573173 </v>
    <v>       0.12500000       0.12500000       0.62573173 </v>
    <v>       0.12500000       0.62500000       0.12573173 </v>
    <v>       0.12500000       0.62500000       0.62573173 </v>
    <v>       0.62500000       0.12500000       0.12573173 </v>
    <v>       0.62500000       0.12500000       0.62573173 </v>
    <v>       0.62500000       0.62500000       0.12573173 </v>
    <v>       0.62500000       0.62500000       0.62573173 </v>
   </varray>
  </structure>
  <varray name="forces" >
   <v>      -0.00000000      -0.00000000       0.05789908 </v>
   <v>      -0.00000000      -0.00000000       0.05789908 </v>
   <v>      -0.00000000       0.00000000       0.05789908 </v>
   <v>       0.00000000      -0.00000000       0.05789908 </v>
   <v>      -0.00000000      -0.00000000       0.05789908 </v>
   <v>       0.00000000      -0.00000000       0.05789908 </v>
   <v>      -0.00000000      -0.00000000       0.05789908 </v>
   <v>       0.00000000       0.00000000       0.05789908 </v>
   <v>      -0.00000000       0.00000000      -0.05789908 </v>
   <v>       0.00000000       0.00000000      -0.05789908 </v>
   <v>      -0.00000000      -0.00000000      -0.05789908 </v>
   <v>      -0.00000000      -0.00000000      -0.05789908 </v>
   <v>      -0.00000000       0.00000000      -0.05789908 </v>
   <v>      -0.00000000       0.00000000      -0.05789908 </v>
   <v>       0.00000000      -0.00000000      -0.05789908 </v>
   <v>       0.00000000      -0.00000000      -0.05789908 </v>
   <v>      -0.00000000      -0.00000000       0.05789908 </v>
   <v>      -0.00000000      -0.00000000       0.05789908 </v>
   <v>       0.00000000       0.00000000       0.05789908 </v>
   <v>       0.00000000       0.00000000       0.05789908 </v>
   <v>      -0.00000000      -0.00000000       0.05789908 </v>
   <v>      -0.00000000      -0.00000000       0.05789908 </v>
   <v>       0.00000000       0.00000000       0.05789908 </v>
   <v>       0.00000000       0.00000000       0.05789908 </v>
   <v>       0.00000000       0.00000000      -0.05789908 </v>
   <v>      -0.00000000      -0.00000000      -0.05789908 </v>
   <v>       0.00000000       0.00000000      -0.05789908 </v>
   <v>      -0.00000000       0.00000000      -0.05789908 </v>
   <v>       0.00000000      -0.00000000      -0.05789908 </v>
   <v>      -0.00000000      -0.00000000      -0.05789908 </v>
   <v>      -0.00000000      -0.00000000      -0.05789908 </v>
   <v>       0.00000000       0.00000000      -0.05789908 </v>
   <v>       0.00000000       0.00000000       0.05789908 </v>
   <v>      -0.00000000       0.00000000       0.05789908 </v>
   <v>       0.00000000      -0.00000000       0.05789908 </v>
   <v>       0.00000000      -0.00000000       0.05789908 </v>
   <v>       0.00000000      -0.00000000       0.05789908 </v>
   <v>       0.00000000      -0.00000000       0.05789908 </v>
   <v>      -0.00000000       0.00000000       0.05789908 </v>
   <v>       0.00000000       0.00000000       0.05789908 </v>
   <v>      -0.00000000       0.00000000      -0.05789908 </v>
   <v>      -0.00000000       0.00000000      -0.05789908 </v>
   <v>       0.00000000      -0.00000000      -0.05789908 </v>
   <v>       0.00000000      -0.00000000      -0.05789908 </v>
   <v>      -0.00000000       0.00000000      -0.05789908 </v>
   <v>      -0.00000000       0.00000000      -0.05789908 </v>
   <v>       0.00000000      -0.00000000      -0.05789908 </v>
   <v>       0.00000000      -0.00000000      -0.05789908 </v>
   <v>       0.00000000       0.00000000       0.05789908 </v>
   <v>      -0.00000000      -0.00000000       0.05789908 </v>
   <v>       0.00000000       0.00000000       0.05789908 </v>
   <v>       0.00000000       0.00000000       0.05789908 </v>
   <v>      -0.00000000      -0.00000000       0.05789908 </v>
   <v>      -0.00000000      -0.00000000       0.05789908 </v>
   <v>       0.00000000       0.00000000       0.05789908 </v>
   <v>       0.00000000       0.00000000       0.05789908 </v>
   <v>      -0.00000000      -0.00000000      -0.05789908 </v>
   <v>       0.00000000      -0.00000000      -0.05789908 </v>
   <v>       0.00000000       0.00000000      -0.05789908 </v>
   <v>       0.00000000       0.00000000      -0.05789908 </v>
   <v>       0.00000000      -0.00000000      -0.05789908 </v>
   <v>       0.00000000      -0.00000000      -0.05789908 </v>
   <v>      -0.00000000       0.00000000      -0.05789908 </v>
   <v>      -0.00000000       0.00000000      -0.05789908 </v>
  </varray>
  <varray name="stress" >
   <v>      33.84415204       9.65396689       0.00000000 </v>
   <v>       9.65396690      21.04075871       0.00000000 </v>
   <v>       0.00000000       0.00000000      20.72081295 </v>
  </varray>
  <energy>
   <i name="e_fr_energy">   -367.25143101 </i>
   <i name="e_wo_entrp">   -367.27588063 </i>
   <i name="e_0_energy">   -367.25958088 </i>
  </energy>
  <time name="totalsc">   13.65   13.89</time>
 </calculation>
 <calculation>
  <scstep>
   <time name="dav">    1.30    1.31</time>
   <time name="total">    1.69    1.70</time>
   <energy>
    <i name="alphaZ">    110.08953731 </i>
    <i name="ewald">  -7369.14667132 </i>
    <i name="hartreedc">   -459.42146007 </i>
    <i name="XCdc">   -535.97714372 </i>
    <i name="pawpsdc">  29160.35234245 </i>
    <i name="pawaedc"> -28061.34824165 </i>
    <i name="eentropy">      0.02663042 </i>
    <i name="bandstr">    223.37428103 </i>
    <i name="atom">   6564.79586099 </i>
    <i name="e_fr_energy">   -367.25486455 </i>
    <i name="e_wo_entrp">   -367.28149498 </i>
    <i name="e_0_energy">   -367.26374136 </i>
   </energy>
  </scstep>
  <scstep>
   <time name="diag">    0.13    0.13</time>
   <time name="diis">    0.73    0.73</time>
   <time name="orth">    0.03    0.03</time>
   <time name="total">    1.31    1.33</time>
   <energy>
    <i name="e_fr_energy">   -367.25524102 </i>
    <i name="e_wo_entrp">   -367.28187657 </i>
    <i name="e_0_energy">   -367.26411953 </i>
   </energy>
  </scstep>
  <scstep>
   <time name="diag">    0.13    0.13</time>
   <time name="diis">    0.74    0.74</time>
   <time name="orth">    0.02    0.02</time>
   <time name="total">    1.29    1.31</time>
   <energy>
    <i name="e_fr_energy">   -367.25529499 </i>
    <i name="e_wo_entrp">   -367.28187920 </i>
    <i name="e_0_energy">   -367.26415639 </i>
   </energy>
  </scstep>
  <scstep>
   <time name="diag">    0.14    0.14</time>
   <time name="diis">    0.74    0.74</time>
   <time name="orth">    0.02    0.02</time>
   <time name="total">    1.29    1.31</time>
   <energy>
    <i name="e_fr_energy">   -367.25529523 </i>
    <i name="e_wo_entrp">   -367.28183409 </i>
    <i name="e_0_energy">   -367.26414152 </i>
   </energy>
  </scstep>
  <scstep>
   <time name="diag">    0.16    0.16</time>
   <time name="diis">    0.71    0.71</time>
   <time name="orth">    0.02    0.02</time>
   <time name="total">    1.29    1.31</time>
   <energy>
    <i name="e_fr_energy">   -367.25529592 </i>
    <i name="e_wo_entrp">   -367.28181720 </i>
    <i name="e_0_energy">   -367.26413635 </i>
   </energy>
  </scstep>
  <scstep>
   <time name="diag">    0.13    0.13</time>
   <time name="diis">    0.54    0.54</time>
   <time name="orth">    0.02    0.02</time>
   <time name="total">    1.09    1.11</time>
   <energy>
    <i name="e_fr_energy">   -367.25529621 </i>
    <i name="e_wo_entrp">   -367.28181784 </i>
    <i name="e_0_energy">   -367.26413675 </i>
   </energy>
  </scstep>
  <scstep>
   <time name="diag">    0.13    0.13</time>
   <time name="diis">    0.45    0.45</time>
   <time name="orth">    0.02    0.02</time>
   <time name="total">    1.01    1.02</time>
   <energy>
    <i name="e_fr_energy">   -367.25529626 </i>
    <i name="e_wo_entrp">   -367.28181832 </i>
    <i name="e_0_energy">   -367.26413695 </i>
   </energy>
  </scstep>
  <scstep>
   <time name="diag">    0.13    0.13</time>
   <time name="diis">    0.41    0.41</time>
   <time name="orth">    0.02    0.02</time>
   <time name="total">    0.71    0.73</time>
   <energy>
    <i name="alphaZ">    110.08953731 </i>
    <i name="ewald">  -7369.14667132 </i>
    <i name="hartreedc">   -459.45510058 </i>
    <i name="XCdc">   -535.97210118 </i>
    <i name="pawpsdc">  29165.82887876 </i>
    <i name="pawaedc"> -28066.82745354 </i>
    <i name="eentropy">      0.02652200 </i>
    <i name="bandstr">    223.40523127 </i>
    <i name="atom">   6564.79586099 </i>
    <i name="e_fr_energy">   -367.25529629 </i>
    <i name="e_wo_entrp">   -367.28181828 </i>
    <i name="e_0_energy">   -367.26413695 </i>
   </energy>
  </scstep>
  <structure>
   <crystal>
    <varray name="basis" >
     <v>      10.67141258      -0.08125401       0.00000000 </v>
     <v>      -0.08125401      10.83392060       0.00000000 </v>
     <v>       0.00000000       0.00000000      10.83392060 </v>
    </varray>
    <i name="volume">   1252.47309708 </i>
    <varray name="rec_basis" >
     <v>       0.09371366       0.00070285       0.00000000 </v>
     <v>       0.00070285       0.09230796       0.00000000 </v>
     <v>       0.00000000       0.00000000       0.09230269 </v>
    </varray>
   </crystal>
   <varray name="positions" >
    <v>       0.00000000       0.00000000       0.99946117 </v>
    <v>       0.00000000       0.00000000       0.49946117 </v>
    <v>       0.00000000       0.50000000       0.99946117 </v>
    <v>       0.00000000       0.50000000       0.49946117 </v>
    <v>       0.50000000       0.00000000       0.99946117 </v>
    <v>       0.50000000       0.00000000       0.49946117 </v>
    <v>       0.50000000       0.50000000       0.99946117 </v>
    <v>       0.50000000       0.50000000       0.49946117 </v>
    <v>       0.37500000       0.37500000       0.12553883 </v>
    <v>       0.37500000       0.37500000       0.62553883 </v>
    <v>       0.37500000       0.87500000       0.12553883 </v>
    <v>       0.37500000       0.87500000       0.62553883 </v>
    <v>       0.87500000       0.37500000       0.12553883 </v>
    <v>       0.87500000       0.37500000       0.62553883 </v>
    <v>       0.87500000       0.87500000       0.12553883 </v>
    <v>       0.87500000       0.87500000       0.62553883 </v>
    <v>       0.00000000       0.25000000       0.24946117 </v>
    <v>       0.00000000       0.25000000       0.74946117 </v>
    <v>       0.00000000       0.75000000       0.24946117 </v>
    <v>       0.00000000       0.75000000       0.74946117 </v>
    <v>       0.50000000       0.25000000       0.24946117 </v>
    <v>       0.50000000       0.25000000       0.74946117 </v>
    <v>       0.50000000       0.75000000       0.24946117 </v>
    <v>       0.50000000       0.75000000       0.74946117 </v>
    <v>       0.37500000       0.12500000       0.37553883 </v>
    <v>       0.37500000       0.12500000       0.87553883 </v>
    <v>       0.37500000       0.62500000       0.37553883 </v>
    <v>       0.37500000       0.62500000       0.87553883 </v>
    <v>       0.87500000       0.12500000       0.37553883 </v>
    <v>       0.87500000       0.12500000       0.87553883 </v>
    <v>       0.87500000       0.62500000       0.37553883 </v>
    <v>       0.87500000       0.62500000       0.87553883 </v>
    <v>       0.25000000       0.00000000       0.24946117 </v>
    <v>       0.25000000       0.00000000       0.74946117 </v>
    <v>       0.25000000       0.50000000       0.24946117 </v>
    <v>       0.25000000       0.50000000       0.74946117 </v>
    <v>       0.75000000       0.00000000       0.24946117 </v>
    <v>       0.75000000       0.00000000       0.74946117 </v>
    <v>       0.75000000       0.50000000       0.24946117 </v>
    <v>       0.75000000       0.50000000       0.74946117 </v>
    <v>       0.12500000       0.37500000       0.37553883 </v>
    <v>       0.12500000       0.37500000       0.87553883 </v>
    <v>       0.12500000       0.87500000       0.37553883 </v>
    <v>       0.12500000       0.87500000       0.87553883 </v>
    <v>       0.62500000       0.37500000       0.37553883 </v>
    <v>       0.62500000       0.37500000       0.87553883 </v>
    <v>       0.62500000       0.87500000       0.37553883 </v>
    <v>       0.62500000       0.87500000       0.87553883 </v>
    <v>       0.25000000       0.25000000       0.99946117 </v>
    <v>       0.25000000       0.25000000       0.49946117 </v>
    <v>       0.25000000       0.75000000       0.99946117 </v>
    <v>       0.25000000       0.75000000       0.49946117 </v>
    <v>       0.75000000       0.25000000       0.99946117 </v>
    <v>       0.75000000       0.25000000       0.49946117 </v>
    <v>       0.75000000       0.75000000       0.99946117 </v>
    <v>       0.75000000       0.75000000       0.49946117 </v>
    <v>       0.12500000       0.12500000       0.12553883 </v>
    <v>       0.12500000       0.12500000       0.62553883 </v>
    <v>       0.12500000       0.62500000       0.12553883 </v>
    <v>       0.12500000       0.62500000       0.62553883 </v>
    <v>       0.62500000       0.12500000       0.12553883 </v>
    <v>       0.62500000       0.12500000       0.62553883 </v>
    <v>       0.62500000       0.62500000       0.12553883 </v>
    <v>       0.62500000       0.62500000       0.62553883 </v>
   </varray>
  </structure>
  <varray name="forces" >
   <v>       0.00000000      -0.00000000      -0.00004696 </v>
   <v>       0.00000000      -0.00000000      -0.00004696 </v>
   <v>      -0.00000000       0.00000000      -0.00004696 </v>
   <v>      -0.00000000       0.00000000      -0.00004696 </v>
   <v>       0.00000000      -0.00000000      -0.00004696 </v>
   <v>       0.00000000      -0.00000000      -0.00004696 </v>
   <v>      -0.00000000       0.00000000      -0.00004696 </v>
   <v>      -0.00000000       0.00000000      -0.00004696 </v>
   <v>       0.00000000       0.00000000       0.00004696 </v>
   <v>       0.00000000       0.00000000       0.00004696 </v>
   <v>      -0.00000000       0.00000000       0.00004696 </v>
   <v>      -0.00000000       0.00000000       0.00004696 </v>
   <v>       0.00000000      -0.00000000       0.00004696 </v>
   <v>       0.00000000       0.00000000       0.00004696 </v>
   <v>      -0.00000000       0.00000000       0.00004696 </v>
   <v>      -0.00000000       0.00000000       0.00004696 </v>
   <v>       0.00000000      -0.00000000      -0.00004696 </v>
   <v>       0.00000000      -0.00000000      -0.00004696 </v>
   <v>      -0.00000000       0.00000000      -0.00004696 </v>
   <v>      -0.00000000       0.00000000      -0.00004696 </v>
   <v>       0.00000000      -0.00000000      -0.00004696 </v>
   <v>       0.00000000      -0.00000000      -0.00004696 </v>
   <v>      -0.00000000       0.00000000      -0.00004696 </v>
   <v>      -0.00000000       0.00000000      -0.00004696 </v>
   <v>      -0.00000000       0.00000000       0.00004696 </v>
   <v>      -0.00000000       0.00000000       0.00004696 </v>
   <v>       0.00000000      -0.00000000       0.00004696 </v>
   <v>       0.00000000      -0.00000000       0.00004696 </v>
   <v>      -0.00000000       0.00000000       0.00004696 </v>
   <v>      -0.00000000       0.00000000       0.00004696 </v>
   <v>       0.00000000      -0.00000000       0.00004696 </v>
   <v>       0.00000000      -0.00000000       0.00004696 </v>
   <v>       0.00000000      -0.00000000      -0.00004696 </v>
   <v>       0.00000000      -0.00000000      -0.00004696 </v>
   <v>      -0.00000000       0.00000000      -0.00004696 </v>
   <v>      -0.00000000       0.00000000      -0.00004696 </v>
   <v>       0.00000000      -0.00000000      -0.00004696 </v>
   <v>       0.00000000      -0.00000000      -0.00004696 </v>
   <v>      -0.00000000       0.00000000      -0.00004696 </v>
   <v>      -0.00000000       0.00000000      -0.00004696 </v>
   <v>       0.00000000       0.00000000       0.00004696 </v>
   <v>       0.00000000      -0.00000000       0.00004696 </v>
   <v>      -0.00000000      -0.00000000       0.00004696 </v>
   <v>      -0.00000000       0.00000000       0.00004696 </v>
   <v>       0.00000000      -0.00000000       0.00004696 </v>
   <v>       0.00000000      -0.00000000       0.00004696 </v>
   <v>      -0.00000000      -0.00000000       0.00004696 </v>
   <v>      -0.00000000       0.00000000       0.00004696 </v>
   <v>       0.00000000      -0.00000000      -0.00004696 </v>
   <v>       0.00000000      -0.00000000      -0.00004696 </v>
   <v>      -0.00000000       0.00000000      -0.00004696 </v>
   <v>      -0.00000000       0.00000000      -0.00004696 </v>
   <v>       0.00000000      -0.00000000      -0.00004696 </v>
   <v>       0.00000000      -0.00000000      -0.00004696 </v>
   <v>      -0.00000000       0.00000000      -0.00004696 </v>
   <v>      -0.00000000      -0.00000000      -0.00004696 </v>
   <v>      -0.00000000       0.00000000       0.00004696 </v>
   <v>      -0.00000000       0.00000000       0.00004696 </v>
   <v>       0.00000000      -0.00000000       0.00004696 </v>
   <v>       0.00000000      -0.00000000       0.00004696 </v>
   <v>      -0.00000000       0.00000000       0.00004696 </v>
   <v>      -0.00000000       0.00000000       0.00004696 </v>
   <v>       0.00000000      -0.00000000       0.00004696 </v>
   <v>       0.00000000      -0.00000000       0.00004696 </v>
  </varray>
  <varray name="stress" >
   <v>      33.93423848      11.52123984       0.00000000 </v>
   <v>      11.52123988      21.09086544       0.00000000 </v>
   <v>       0.00000000       0.00000000      20.84495856 </v>
  </varray>
  <energy>
   <i name="e_fr_energy">   -367.25529629 </i>
   <i name="e_wo_entrp">   -367.28181828 </i>
   <i name="e_0_energy">   -367.26413695 </i>
  </energy>
  <time name="totalsc">   13.12   13.28</time>
  <eigenvalues>
   <array>
    <dimension dim="1">band</dimension>
    <dimension dim="2">kpoint</dimension>
    <dimension dim="3">spin</dimension>
    <field>eigene</field>
    <field>occ</field>
    <set>
     <set comment="spin 1">
      <set comment="kpoint 1">
       <r>   -6.1239    1.0000 </r>
       <r>   -5.0258    1.0000 </r>
       <r>   -5.0258    1.0000 </r>
       <r>   -5.0255    1.0000 </r>
       <r>   -5.0255    1.0000 </r>
       <r>   -4.9968    1.0000 </r>
       <r>   -4.9968    1.0000 </r>
       <r>   -4.0552    1.0000 </r>
       <r>   -4.0552    1.0000 </r>
       <r>   -4.0390    1.0000 </r>
       <r>   -4.0390    1.0000 </r>
       <r>   -4.0390    1.0000 </r>
       <r>   -4.0390    1.0000 </r>
       <r>   -4.0186    1.0000 </r>
       <r>   -4.0186    1.0000 </r>
       <r>   -4.0186    1.0000 </r>
       <r>   -4.0186    1.0000 </r>
       <r>   -3.9813    1.0000 </r>
       <r>   -3.9813    1.0000 </r>
       <r>   -3.7530    1.0000 </r>
       <r>   -3.7530    1.0000 </r>
       <r>   -3.6759    1.0000 </r>
       <r>   -3.6759    1.0000 </r>
       <r>   -1.9351    1.0000 </r>
       <r>   -1.9089    1.0000 </r>
       <r>   -1.9089    1.0000 </r>
       <r>   -1.8854    1.0000 </r>
       <r>   -1.8160    1.0000 </r>
       <r>   -1.8160    1.0000 </r>
       <r>   -1.7598    1.0000 </r>
       <r>   -1.7598    1.0000 </r>
       <r>   -1.7278    1.0000 </r>
       <r>   -1.7278    1.0000 </r>
       <r>   -1.6871    1.0000 </r>
       <r>   -1.6871    1.0000 </r>
       <r>   -1.6870    1.0000 </r>
       <r>   -1.6870    1.0000 </r>
       <r>   -1.6771    1.0000 </r>
       <r>   -1.6771    1.0000 </r>
       <r>   -1.6475    1.0000 </r>
       <r>   -1.6475    1.0000 </r>
       <r>   -1.1163    1.0000 </r>
       <r>   -1.1163    1.0000 </r>
       <r>   -1.0825    1.0000 </r>
       <r>   -1.0825    1.0000 </r>
       <r>    0.4609    1.0000 </r>
       <r>    0.4609    1.0000 </r>
       <r>    0.4706    1.0000 </r>
       <r>    0.4706    1.0000 </r>
       <r>    0.4707    1.0000 </r>
       <r>    0.4707    1.0000 </r>
       <r>    0.4813    1.0000 </r>
       <r>    0.4813    1.0000 </r>
       <r>    0.5264    1.0000 </r>
       <r>    0.5264    1.0000 </r>
       <r>    0.5264    1.0000 </r>
       <r>    0.5264    1.0000 </r>
       <r>    1.9960    1.0000 </r>
       <r>    1.9960    1.0000 </r>
       <r>    2.0044    1.0000 </r>
       <r>    2.0044    1.0000 </r>
       <r>    2.0232    1.0000 </r>
       <r>    2.0232    1.0000 </r>
       <r>    2.0232    1.0000 </r>
       <r>    2.0232    1.0000 </r>
       <r>    2.0313    1.0000 </r>
       <r>    2.0313    1.0000 </r>
       <r>    2.0423    1.0000 </r>
       <r>    2.0423    1.0000 </r>
       <r>    2.0896    1.0000 </r>
       <r>    2.0896    1.0000 </r>
       <r>    2.1051    1.0000 </r>
       <r>    2.1051    1.0000 </r>
       <r>    2.1051    1.0000 </r>
       <r>    2.1051    1.0000 </r>
       <r>    2.1165    1.0000 </r>
       <r>    2.1165    1.0000 </r>
       <r>    2.1909    1.0000 </r>
       <r>    2.1909    1.0000 </r>
       <r>    2.1909    1.0000 </r>
       <r>    2.1909    1.0000 </r>
       <r>    2.4717    1.0000 </r>
       <r>    2.4717    1.0000 </r>
       <r>    2.4744    1.0000 </r>
       <r>    2.4744    1.0000 </r>
       <r>    2.5820    1.0000 </r>
       <r>    2.5820    1.0000 </r>
       <r>    3.0129    1.0000 </r>
       <r>    3.0129    1.0000 </r>
       <r>    3.0284    1.0000 </r>
       <r>    3.1313    1.0000 </r>
       <r>    3.1313    1.0000 </r>
       <r>    3.2366    1.0000 </r>
       <r>    4.0069    1.0000 </r>
       <r>    4.0069    1.0000 </r>
       <r>    4.0138    1.0000 </r>
       <r>    4.0138    1.0000 </r>
       <r>    4.0149    1.0000 </r>
       <r>    4.0149    1.0000 </r>
       <r>    4.0885    1.0000 </r>
       <r>    4.0885    1.0000 </r>
       <r>    4.1230    1.0000 </r>
       <r>    4.1230    1.0000 </r>
       <r>    4.2071    1.0000 </r>
       <r>    4.2071    1.0000 </r>
       <r>    4.5823    1.0000 </r>
       <r>    4.5823    1.0000 </r>
       <r>    4.5823    1.0000 </r>
       <r>    4.5823    1.0000 </r>
       <r>    4.6321    1.0000 </r>
       <r>    4.6321    1.0000 </r>
       <r>    4.6947    1.0000 </r>
       <r>    4.6947    1.0000 </r>
       <r>    4.7034    1.0000 </r>
       <r>    4.7034    1.0000 </r>
       <r>    4.7034    1.0000 </r>
       <r>    4.7034    1.0000 </r>
       <r>    4.7565    1.0000 </r>
       <r>    4.7565    1.0000 </r>
       <r>    4.7785    1.0000 </r>
       <r>    4.7785    1.0000 </r>
       <r>    4.8246    1.0000 </r>
       <r>    4.8246    1.0000 </r>
       <r>    4.9379    1.0000 </r>
       <r>    4.9379    1.0000 </r>
       <r>    5.9508    1.0180 </r>
       <r>    5.9897    1.0268 </r>
       <r>    6.1402    0.9808 </r>
       <r>    6.4877   -0.0219 </r>
       <r>    6.4877   -0.0219 </r>
       <r>    6.4942   -0.0255 </r>
       <r>    6.6098   -0.0239 </r>
       <r>    6.6098   -0.0239 </r>
       <r>    6.7266   -0.0045 </r>
       <r>    6.9570   -0.0000 </r>
       <r>    6.9570   -0.0000 </r>
       <r>    7.0757   -0.0000 </r>
       <r>    7.0757   -0.0000 </r>
       <r>    7.0793   -0.0000 </r>
       <r>    7.0793   -0.0000 </r>
       <r>    7.4869   -0.0000 </r>
       <r>    7.4869   -0.0000 </r>
       <r>    7.6362   -0.0000 </r>
       <r>    7.6362   -0.0000 </r>
       <r>    8.3070   -0.0000 </r>
       <r>    8.3070   -0.0000 </r>
       <r>    8.3070   -0.0000 </r>
       <r>    8.3070   -0.0000 </r>
       <r>    8.3669   -0.0000 </r>
       <r>    8.3669   -0.0000 </r>
       <r>    8.4491   -0.0000 </r>
       <r>    8.4491   -0.0000 </r>
       <r>    8.4491   -0.0000 </r>
       <r>    8.4491   -0.0000 </r>
       <r>    8.4546   -0.0000 </r>
       <r>    8.5337   -0.0000 </r>
       <r>    8.5337   -0.0000 </r>
       <r>    8.5476   -0.0000 </r>
       <r>    8.6350   -0.0000 </r>
       <r>    9.0359   -0.0000 </r>
       <r>    9.0385   -0.0000 </r>
       <r>    9.0551   -0.0000 </r>
      </set>
      <set comment="kpoint 2">
       <r>   -5.8395    1.0000 </r>
       <r>   -5.8395    1.0000 </r>
       <r>   -4.7854    1.0000 </r>
       <r>   -4.7854    1.0000 </r>
       <r>   -4.7665    1.0000 </r>
       <r>   -4.7665    1.0000 </r>
       <r>   -4.7665    1.0000 </r>
       <r>   -4.7665    1.0000 </r>
       <r>   -4.7470    1.0000 </r>
       <r>   -4.7470    1.0000 </r>
       <r>   -3.9181    1.0000 </r>
       <r>   -3.9181    1.0000 </r>
       <r>   -3.9181    1.0000 </r>
       <r>   -3.9181    1.0000 </r>
       <r>   -3.8706    1.0000 </r>
       <r>   -3.8706    1.0000 </r>
       <r>   -3.8706    1.0000 </r>
       <r>   -3.8706    1.0000 </r>
       <r>   -3.6312    1.0000 </r>
       <r>   -3.6312    1.0000 </r>
       <r>   -2.9485    1.0000 </r>
       <r>   -2.9485    1.0000 </r>
       <r>   -2.9004    1.0000 </r>
       <r>   -2.9004    1.0000 </r>
       <r>   -2.9004    1.0000 </r>
       <r>   -2.9004    1.0000 </r>
       <r>   -2.8518    1.0000 </r>
       <r>   -2.8518    1.0000 </r>
       <r>   -1.8507    1.0000 </r>
       <r>   -1.8507    1.0000 </r>
       <r>   -1.8492    1.0000 </r>
       <r>   -1.8492    1.0000 </r>
       <r>   -1.7891    1.0000 </r>
       <r>   -1.7891    1.0000 </r>
       <r>   -1.7884    1.0000 </r>
       <r>   -1.7884    1.0000 </r>
       <r>   -0.6306    1.0000 </r>
       <r>   -0.6306    1.0000 </r>
       <r>   -0.6171    1.0000 </r>
       <r>   -0.6171    1.0000 </r>
       <r>   -0.6171    1.0000 </r>
       <r>   -0.6171    1.0000 </r>
       <r>   -0.6059    1.0000 </r>
       <r>   -0.6059    1.0000 </r>
       <r>   -0.4855    1.0000 </r>
       <r>   -0.4855    1.0000 </r>
       <r>   -0.4855    1.0000 </r>
       <r>   -0.4855    1.0000 </r>
       <r>   -0.4301    1.0000 </r>
       <r>   -0.4301    1.0000 </r>
       <r>   -0.4301    1.0000 </r>
       <r>   -0.4301    1.0000 </r>
       <r>    0.3174    1.0000 </r>
       <r>    0.3174    1.0000 </r>
       <r>    1.5990    1.0000 </r>
       <r>    1.5990    1.0000 </r>
       <r>    1.6057    1.0000 </r>
       <r>    1.6057    1.0000 </r>
       <r>    1.6057    1.0000 </r>
       <r>    1.6057    1.0000 </r>
       <r>    1.6115    1.0000 </r>
       <r>    1.6115    1.0000 </r>
       <r>    1.6687    1.0000 </r>
       <r>    1.6687    1.0000 </r>
       <r>    1.6837    1.0000 </r>
       <r>    1.6837    1.0000 </r>
       <r>    1.6837    1.0000 </r>
       <r>    1.6837    1.0000 </r>
       <r>    1.7049    1.0000 </r>
       <r>    1.7049    1.0000 </r>
       <r>    2.4282    1.0000 </r>
       <r>    2.4282    1.0000 </r>
       <r>    2.4879    1.0000 </r>
       <r>    2.4879    1.0000 </r>
       <r>    2.5039    1.0000 </r>
       <r>    2.5039    1.0000 </r>
       <r>    2.5655    1.0000 </r>
       <r>    2.5655    1.0000 </r>
       <r>    3.1802    1.0000 </r>
       <r>    3.1802    1.0000 </r>
       <r>    3.2057    1.0000 </r>
       <r>    3.2057    1.0000 </r>
       <r>    3.2057    1.0000 </r>
       <r>    3.2057    1.0000 </r>
       <r>    3.2252    1.0000 </r>
       <r>    3.2252    1.0000 </r>
       <r>    3.2682    1.0000 </r>
       <r>    3.2682    1.0000 </r>
       <r>    3.2686    1.0000 </r>
       <r>    3.2686    1.0000 </r>
       <r>    3.3482    1.0000 </r>
       <r>    3.3482    1.0000 </r>
       <r>    3.4014    1.0000 </r>
       <r>    3.4014    1.0000 </r>
       <r>    3.4014    1.0000 </r>
       <r>    3.4014    1.0000 </r>
       <r>    3.4559    1.0000 </r>
       <r>    3.4559    1.0000 </r>
       <r>    3.5111    1.0000 </r>
       <r>    3.5111    1.0000 </r>
       <r>    3.5111    1.0000 </r>
       <r>    3.5111    1.0000 </r>
       <r>    3.6223    1.0000 </r>
       <r>    3.6223    1.0000 </r>
       <r>    3.6223    1.0000 </r>
       <r>    3.6223    1.0000 </r>
       <r>    4.5355    1.0000 </r>
       <r>    4.5355    1.0000 </r>
       <r>    4.5711    1.0000 </r>
       <r>    4.5711    1.0000 </r>
       <r>    4.5711    1.0000 </r>
       <r>    4.5711    1.0000 </r>
       <r>    4.6090    1.0000 </r>
       <r>    4.6090    1.0000 </r>
       <r>    4.6326    1.0000 </r>
       <r>    4.6326    1.0000 </r>
       <r>    4.6326    1.0000 </r>
       <r>    4.6326    1.0000 </r>
       <r>    4.6736    1.0000 </r>
       <r>    4.6736    1.0000 </r>
       <r>    4.6736    1.0000 </r>
       <r>    4.6736    1.0000 </r>
       <r>    4.7631    1.0000 </r>
       <r>    4.7631    1.0000 </r>
       <r>    5.1421    1.0000 </r>
       <r>    5.1421    1.0000 </r>
       <r>    5.1557    1.0000 </r>
       <r>    5.1557    1.0000 </r>
       <r>    6.3992    0.1144 </r>
       <r>    6.3992    0.1144 </r>
       <r>    7.3605   -0.0000 </r>
       <r>    7.3605   -0.0000 </r>
       <r>    7.8151   -0.0000 </r>
       <r>    7.8151   -0.0000 </r>
       <r>    7.9103   -0.0000 </r>
       <r>    7.9103   -0.0000 </r>
       <r>    7.9410   -0.0000 </r>
       <r>    7.9410   -0.0000 </r>
       <r>    7.9742   -0.0000 </r>
       <r>    7.9742   -0.0000 </r>
       <r>    8.1017   -0.0000 </r>
       <r>    8.1017   -0.0000 </r>
       <r>    8.2377   -0.0000 </r>
       <r>    8.2377   -0.0000 </r>
       <r>    8.2377   -0.0000 </r>
       <r>    8.2377   -0.0000 </r>
       <r>    8.3246   -0.0000 </r>
       <r>    8.3246   -0.0000 </r>
       <r>    8.3246   -0.0000 </r>
       <r>    8.3246   -0.0000 </r>
       <r>    8.4242   -0.0000 </r>
       <r>    8.4243   -0.0000 </r>
       <r>    8.4622   -0.0000 </r>
       <r>    8.4622   -0.0000 </r>
       <r>    8.4623   -0.0000 </r>
[...]
      </set>
     </set>
    </set>
   </array>
  </eigenvalues>
  <separator name="orbital magnetization" >
   <v name="MAGDIPOLOUT">      0.00000000      0.00000000      0.00000000</v>
  </separator>
  <dos>
   <i name="efermi">      6.29343326 </i>
   <total>
    <array>
     <dimension dim="1">gridpoints</dimension>
     <dimension dim="2">spin</dimension>
     <field>energy</field>
     <field>total</field>
     <field>integrated</field>
     <set>
      <set comment="spin 1">
       <r>    -8.1239     0.0000     0.0000 </r>
       <r>    -8.0586     0.0000     0.0000 </r>
       <r>    -7.9933     0.0000     0.0000 </r>
       <r>    -7.9280     0.0000     0.0000 </r>
       <r>    -7.8627     0.0000     0.0000 </r>
       <r>    -7.7974     0.0000     0.0000 </r>
       <r>    -7.7320    -0.0000    -0.0000 </r>
       <r>    -7.6667    -0.0000    -0.0000 </r>
       <r>    -7.6014    -0.0000    -0.0000 </r>
       <r>    -7.5361    -0.0000    -0.0000 </r>
       <r>    -7.4708    -0.0000    -0.0000 </r>
       <r>    -7.4055    -0.0000    -0.0000 </r>
       <r>    -7.3402    -0.0000    -0.0000 </r>
       <r>    -7.2749    -0.0000    -0.0000 </r>
       <r>    -7.2096    -0.0000    -0.0000 </r>
       <r>    -7.1443    -0.0000    -0.0000 </r>
       <r>    -7.0790    -0.0000    -0.0000 </r>
       <r>    -7.0137    -0.0000    -0.0000 </r>
       <r>    -6.9484    -0.0000    -0.0000 </r>
       <r>    -6.8831    -0.0000    -0.0000 </r>
       <r>    -6.8177    -0.0000    -0.0000 </r>
       <r>    -6.7524    -0.0001    -0.0000 </r>
       <r>    -6.6871    -0.0008    -0.0001 </r>
       <r>    -6.6218    -0.0037    -0.0003 </r>
       <r>    -6.5565    -0.0129    -0.0011 </r>
       <r>    -6.4912    -0.0330    -0.0033 </r>
       <r>    -6.4259    -0.0571    -0.0070 </r>
       <r>    -6.3606    -0.0454    -0.0100 </r>
       <r>    -6.2953     0.0662    -0.0057 </r>
       <r>    -6.2300     0.2904     0.0133 </r>
       <r>    -6.1647     0.5309     0.0480 </r>
       <r>    -6.0994     0.7405     0.0963 </r>
       <r>    -6.0341     1.1972     0.1745 </r>
       <r>    -5.9688     2.3387     0.3272 </r>
       <r>    -5.9035     4.0373     0.5909 </r>
       <r>    -5.8381     5.4325     0.9457 </r>
       <r>    -5.7728     6.1150     1.3450 </r>
       <r>    -5.7075     7.0396     1.8048 </r>
       <r>    -5.6422     9.1588     2.4029 </r>
       <r>    -5.5769    11.4689     3.1519 </r>
       <r>    -5.5116    11.9568     3.9328 </r>
       <r>    -5.4463    10.4506     4.6153 </r>
       <r>    -5.3810     8.7931     5.1895 </r>
       <r>    -5.3157     8.0406     5.7146 </r>
       <r>    -5.2504     7.3373     6.1938 </r>
       <r>    -5.1851     5.9405     6.5817 </r>
       <r>    -5.1198     4.5771     6.8807 </r>
       <r>    -5.0545     4.2391     7.1575 </r>
       <r>    -4.9892     5.2872     7.5028 </r>
       <r>    -4.9239     8.3141     8.0458 </r>
       <r>    -4.8585    13.9439     8.9564 </r>
       <r>    -4.7932    20.7614    10.3123 </r>
       <r>    -4.7279    25.5997    11.9841 </r>
       <r>    -4.6626    27.2372    13.7629 </r>
       <r>    -4.5973    27.4087    15.5528 </r>
       <r>    -4.5320    26.8318    17.3051 </r>
       <r>    -4.4667    23.3224    18.8282 </r>
       <r>    -4.4014    15.6557    19.8507 </r>
       <r>    -4.3361     6.5597    20.2791 </r>
       <r>    -4.2708     0.2474    20.2952 </r>
       <r>    -4.2055    -1.0467    20.2269 </r>
       <r>    -4.1402     2.6995    20.4032 </r>
       <r>    -4.0749    10.4336    21.0845 </r>
       <r>    -4.0096    20.0415    22.3934 </r>
       <r>    -3.9443    28.1044    24.2288 </r>
       <r>    -3.8789    31.1460    26.2628 </r>
       <r>    -3.8136    28.0283    28.0933 </r>
       <r>    -3.7483    21.1643    29.4754 </r>
       <r>    -3.6830    15.0596    30.4589 </r>
       <r>    -3.6177    13.6177    31.3483 </r>
       <r>    -3.5524    18.2552    32.5405 </r>
       <r>    -3.4871    27.1796    34.3155 </r>
       <r>    -3.4218    36.1987    36.6795 </r>
       <r>    -3.3565    41.4216    39.3846 </r>
       <r>    -3.2912    41.7038    42.1081 </r>
       <r>    -3.2259    38.3088    44.6100 </r>
       <r>    -3.1606    33.0668    46.7695 </r>
       <r>    -3.0953    27.9121    48.5923 </r>
       <r>    -3.0300    24.9882    50.2242 </r>
       <r>    -2.9647    24.7801    51.8425 </r>
       <r>    -2.8993    24.4333    53.4382 </r>
       <r>    -2.8340    20.3606    54.7679 </r>
       <r>    -2.7687    12.5937    55.5903 </r>
       <r>    -2.7034     4.7120    55.8980 </r>
       <r>    -2.6381    -0.1930    55.8854 </r>
       <r>    -2.5728    -1.7495    55.7712 </r>
       <r>    -2.5075    -0.8935    55.7128 </r>
       <r>    -2.4422     1.8938    55.8365 </r>
       <r>    -2.3769     6.1812    56.2402 </r>
       <r>    -2.3116    10.2573    56.9101 </r>
       <r>    -2.2463    11.5355    57.6634 </r>
       <r>    -2.1810     8.9157    58.2457 </r>
       <r>    -2.1157     4.3463    58.5295 </r>
       <r>    -2.0504     1.6993    58.6405 </r>
       <r>    -1.9850     4.2736    58.9196 </r>
       <r>    -1.9197    12.8183    59.7567 </r>
       <r>    -1.8544    24.5595    61.3606 </r>
       <r>    -1.7891    33.9020    63.5746 </r>
       <r>    -1.7238    35.5985    65.8995 </r>
       <r>    -1.6585    28.6068    67.7677 </r>
       <r>    -1.5932    16.9797    68.8766 </r>
       <r>    -1.5279     6.7988    69.3206 </r>
       <r>    -1.4626     2.1581    69.4615 </r>
       <r>    -1.3973     3.3296    69.6790 </r>
       <r>    -1.3320     7.4898    70.1681 </r>
       <r>    -1.2667    10.8778    70.8785 </r>
       <r>    -1.2014    11.2600    71.6138 </r>
       <r>    -1.1361     9.3934    72.2273 </r>
       <r>    -1.0708     8.4225    72.7773 </r>
       <r>    -1.0054    11.2430    73.5116 </r>
       <r>    -0.9401    17.3209    74.6428 </r>
       <r>    -0.8748    22.2947    76.0988 </r>
       <r>    -0.8095    22.5615    77.5722 </r>
       <r>    -0.7442    20.4519    78.9078 </r>
       <r>    -0.6789    22.7091    80.3909 </r>
       <r>    -0.6136    33.1911    82.5585 </r>
       <r>    -0.5483    48.1433    85.7026 </r>
       <r>    -0.4830    58.3892    89.5158 </r>
       <r>    -0.4177    55.9861    93.1720 </r>
       <r>    -0.3524    40.5787    95.8221 </r>
       <r>    -0.2871    20.2335    97.1435 </r>
       <r>    -0.2218     5.3479    97.4927 </r>
       <r>    -0.1565     1.5527    97.5941 </r>
       <r>    -0.0912     7.5647    98.0882 </r>
       <r>    -0.0258    17.3063    99.2184 </r>
       <r>     0.0395    23.6869   100.7653 </r>
       <r>     0.1048    22.9285   102.2627 </r>
       <r>     0.1701    16.7005   103.3533 </r>
       <r>     0.2354     9.7378   103.9893 </r>
       <r>     0.3007     5.7918   104.3675 </r>
       <r>     0.3660     6.1405   104.7686 </r>
       <r>     0.4313    10.4120   105.4485 </r>
       <r>     0.4966    17.2430   106.5746 </r>
       <r>     0.5619    24.2466   108.1581 </r>
       <r>     0.6272    28.2646   110.0039 </r>
       <r>     0.6925    26.7361   111.7500 </r>
       <r>     0.7578    19.7562   113.0402 </r>
       <r>     0.8231    10.5843   113.7314 </r>
       <r>     0.8884     3.2499   113.9437 </r>
       <r>     0.9538    -0.4168   113.9164 </r>
       <r>     1.0191    -1.2346   113.8358 </r>
       <r>     1.0844    -0.9473   113.7740 </r>
       <r>     1.1497    -0.7681   113.7238 </r>
       <r>     1.2150    -1.1515   113.6486 </r>
       <r>     1.2803    -1.9048   113.5242 </r>
       <r>     1.3456    -1.8097   113.4060 </r>
       <r>     1.4109     1.7464   113.5201 </r>
       <r>     1.4762    11.6187   114.2788 </r>
       <r>     1.5415    27.7479   116.0910 </r>
       <r>     1.6068    44.5755   119.0020 </r>
       <r>     1.6721    53.1157   122.4709 </r>
       <r>     1.7374    47.9534   125.6025 </r>
       <r>     1.8027    32.9791   127.7563 </r>
       <r>     1.8680    18.9658   128.9949 </r>
       <r>     1.9334    14.3102   129.9294 </r>
       <r>     1.9987    18.2207   131.1194 </r>
       <r>     2.0640    23.0674   132.6258 </r>
       <r>     2.1293    22.9142   134.1223 </r>
       <r>     2.1946    19.7499   135.4121 </r>
       <r>     2.2599    21.9088   136.8429 </r>
       <r>     2.3252    36.1085   139.2010 </r>
       <r>     2.3905    59.7782   143.1049 </r>
       <r>     2.4558    80.7066   148.3756 </r>
       <r>     2.5211    85.5451   153.9623 </r>
       <r>     2.5864    70.3594   158.5572 </r>
       <r>     2.6517    43.4151   161.3925 </r>
       <r>     2.7170    17.7639   162.5527 </r>
       <r>     2.7823     1.5589   162.6545 </r>
       <r>     2.8477    -4.8918   162.3350 </r>
       <r>     2.9130    -4.7151   162.0271 </r>
       <r>     2.9783     0.9470   162.0889 </r>
       <r>     3.0436    13.7209   162.9850 </r>
       <r>     3.1089    33.9372   165.2013 </r>
       <r>     3.1742    56.8127   168.9116 </r>
       <r>     3.2395    74.2039   173.7576 </r>
       <r>     3.3048    80.5575   179.0185 </r>
       <r>     3.3701    76.1834   183.9938 </r>
       <r>     3.4354    65.1346   188.2475 </r>
       <r>     3.5007    52.0776   191.6486 </r>
       <r>     3.5660    41.5468   194.3619 </r>
       <r>     3.6313    37.2643   196.7955 </r>
       <r>     3.6966    39.3878   199.3678 </r>
       <r>     3.7619    43.0155   202.1770 </r>
       <r>     3.8273    41.9474   204.9164 </r>
       <r>     3.8926    34.9549   207.1992 </r>
       <r>     3.9579    27.1615   208.9730 </r>
       <r>     4.0232    24.3623   210.5641 </r>
       <r>     4.0885    27.1026   212.3340 </r>
       <r>     4.1538    31.4500   214.3879 </r>
       <r>     4.2191    34.2037   216.6217 </r>
       <r>     4.2844    35.3526   218.9304 </r>
       <r>     4.3497    36.3269   221.3028 </r>
       <r>     4.4150    38.3352   223.8064 </r>
       <r>     4.4803    42.2769   226.5673 </r>
       <r>     4.5456    48.0243   229.7037 </r>
       <r>     4.6109    53.3031   233.1847 </r>
       <r>     4.6762    54.5512   236.7473 </r>
       <r>     4.7415    49.3925   239.9729 </r>
       <r>     4.8069    38.3136   242.4751 </r>
       <r>     4.8722    24.5809   244.0804 </r>
       <r>     4.9375    12.8789   244.9215 </r>
       <r>     5.0028     7.2341   245.3939 </r>
       <r>     5.0681     8.8712   245.9732 </r>
       <r>     5.1334    15.1791   246.9645 </r>
       <r>     5.1987    21.0755   248.3409 </r>
       <r>     5.2640    22.3902   249.8031 </r>
       <r>     5.3293    18.4730   251.0096 </r>
       <r>     5.3946    11.8065   251.7806 </r>
       <r>     5.4599     5.7455   252.1558 </r>
       <r>     5.5252     2.7264   252.3339 </r>
       <r>     5.5905     3.4685   252.5604 </r>
       <r>     5.6558     6.7118   252.9987 </r>
       <r>     5.7211     9.8554   253.6423 </r>
       <r>     5.7865    10.7118   254.3419 </r>
       <r>     5.8518     9.0290   254.9315 </r>
       <r>     5.9171     6.2303   255.3384 </r>
       <r>     5.9824     3.8267   255.5883 </r>
       <r>     6.0477     2.3278   255.7403 </r>
       <r>     6.1130     1.4439   255.8346 </r>
       <r>     6.1783     0.8522   255.8903 </r>
       <r>     6.2436     0.6871   255.9352 </r>
       <r>     6.3089     1.4899   256.0325 </r>
       <r>     6.3742     3.6462   256.2706 </r>
       <r>     6.4395     6.6786   256.7067 </r>
       <r>     6.5048     9.1500   257.3043 </r>
       <r>     6.5701     9.5858   257.9303 </r>
       <r>     6.6354     7.6839   258.4321 </r>
       <r>     6.7007     4.5943   258.7322 </r>
       <r>     6.7661     2.1241   258.8709 </r>
       <r>     6.8314     1.7958   258.9882 </r>
       <r>     6.8967     4.1911   259.2619 </r>
       <r>     6.9620     8.4104   259.8111 </r>
       <r>     7.0273    12.2163   260.6089 </r>
       <r>     7.0926    13.6530   261.5006 </r>
       <r>     7.1579    13.1244   262.3577 </r>
       <r>     7.2232    13.4300   263.2348 </r>
       <r>     7.2885    16.9360   264.3408 </r>
       <r>     7.3538    22.5883   265.8160 </r>
       <r>     7.4191    26.3498   267.5368 </r>
       <r>     7.4844    25.0472   269.1725 </r>
       <r>     7.5497    19.7116   270.4598 </r>
       <r>     7.6150    15.0313   271.4415 </r>
       <r>     7.6804    15.5100   272.4544 </r>
       <r>     7.7457    21.9449   273.8875 </r>
       <r>     7.8110    31.1927   275.9246 </r>
       <r>     7.8763    38.7372   278.4544 </r>
       <r>     7.9416    41.4708   281.1628 </r>
       <r>     8.0069    39.3866   283.7350 </r>
       <r>     8.0722    35.7959   286.0727 </r>
       <r>     8.1375    35.2110   288.3722 </r>
       <r>     8.2028    39.9044   290.9782 </r>
       <r>     8.2681    48.3824   294.1379 </r>
       <r>     8.3334    56.9466   297.8569 </r>
       <r>     8.3987    62.1272   301.9142 </r>
       <r>     8.4640    61.9735   305.9615 </r>
       <r>     8.5293    56.3684   309.6428 </r>
       <r>     8.5946    46.8311   312.7012 </r>
       <r>     8.6600    35.6363   315.0285 </r>
       <r>     8.7253    25.0325   316.6632 </r>
       <r>     8.7906    17.3797   317.7983 </r>
       <r>     8.8559    14.7106   318.7590 </r>
       <r>     8.9212    16.6146   319.8440 </r>
       <r>     8.9865    19.2654   321.1022 </r>
       <r>     9.0518    18.3240   322.2988 </r>
       <r>     9.1171    12.9655   323.1456 </r>
       <r>     9.1824     6.1738   323.5488 </r>
       <r>     9.2477     1.3796   323.6389 </r>
       <r>     9.3130    -0.2650   323.6216 </r>
       <r>     9.3783     0.2560   323.6383 </r>
       <r>     9.4436     1.3402   323.7258 </r>
       <r>     9.5089     1.8651   323.8476 </r>
       <r>     9.5742     1.5607   323.9495 </r>
       <r>     9.6396     0.8311   324.0038 </r>
       <r>     9.7049     0.2125   324.0177 </r>
       <r>     9.7702    -0.0699   324.0131 </r>
       <r>     9.8355    -0.1065   324.0062 </r>
       <r>     9.9008    -0.0620   324.0021 </r>
       <r>     9.9661    -0.0239   324.0006 </r>
       <r>    10.0314    -0.0067   324.0001 </r>
       <r>    10.0967    -0.0015   324.0000 </r>
       <r>    10.1620    -0.0002   324.0000 </r>
       <r>    10.2273    -0.0000   324.0000 </r>
       <r>    10.2926    -0.0000   324.0000 </r>
       <r>    10.3579    -0.0000   324.0000 </r>
       <r>    10.4232    -0.0000   324.0000 </r>
       <r>    10.4885    -0.0000   324.0000 </r>
       <r>    10.5538    -0.0000   324.0000 </r>
       <r>    10.6192    -0.0000   324.0000 </r>
       <r>    10.6845    -0.0000   324.0000 </r>
       <r>    10.7498    -0.0000   324.0000 </r>
       <r>    10.8151     0.0000   324.0000 </r>
       <r>    10.8804     0.0000   324.0000 </r>
       <r>    10.9457     0.0000   324.0000 </r>
       <r>    11.0110     0.0000   324.0000 </r>
       <r>    11.0763     0.0000   324.0000 </r>
       <r>    11.1416     0.0000   324.0000 </r>
       <r>    11.2069     0.0000   324.0000 </r>
       <r>    11.2722     0.0000   324.0000 </r>
       <r>    11.3375     0.0000   324.0000 </r>
       <r>    11.4028     0.0000   324.0000 </r>
       <r>    11.4681     0.0000   324.0000 </r>
      </set>
     </set>
    </array>
   </total>
  </dos>
 </calculation>
 <structure name="finalpos" >
  <crystal>
   <varray name="basis" >
    <v>      10.67141258      -0.08125401       0.00000000 </v>
    <v>      -0.08125401      10.83392060       0.00000000 </v>
    <v>       0.00000000       0.00000000      10.83392060 </v>
   </varray>
   <i name="volume">   1252.47309708 </i>
   <varray name="rec_basis" >
    <v>       0.09371366       0.00070285       0.00000000 </v>
    <v>       0.00070285       0.09230796       0.00000000 </v>
    <v>       0.00000000       0.00000000       0.09230269 </v>
   </varray>
  </crystal>
  <varray name="positions" >
   <v>       0.00000000       0.00000000       0.99946117 </v>
   <v>       0.00000000       0.00000000       0.49946117 </v>
   <v>       0.00000000       0.50000000       0.99946117 </v>
   <v>       0.00000000       0.50000000       0.49946117 </v>
   <v>       0.50000000       0.00000000       0.99946117 </v>
   <v>       0.50000000       0.00000000       0.49946117 </v>
   <v>       0.50000000       0.50000000       0.99946117 </v>
   <v>       0.50000000       0.50000000       0.49946117 </v>
   <v>       0.37500000       0.37500000       0.12553883 </v>
   <v>       0.37500000       0.37500000       0.62553883 </v>
   <v>       0.37500000       0.87500000       0.12553883 </v>
   <v>       0.37500000       0.87500000       0.62553883 </v>
   <v>       0.87500000       0.37500000       0.12553883 </v>
   <v>       0.87500000       0.37500000       0.62553883 </v>
   <v>       0.87500000       0.87500000       0.12553883 </v>
   <v>       0.87500000       0.87500000       0.62553883 </v>
   <v>       0.00000000       0.25000000       0.24946117 </v>
   <v>       0.00000000       0.25000000       0.74946117 </v>
   <v>       0.00000000       0.75000000       0.24946117 </v>
   <v>       0.00000000       0.75000000       0.74946117 </v>
   <v>       0.50000000       0.25000000       0.24946117 </v>
   <v>       0.50000000       0.25000000       0.74946117 </v>
   <v>       0.50000000       0.75000000       0.24946117 </v>
   <v>       0.50000000       0.75000000       0.74946117 </v>
   <v>       0.37500000       0.12500000       0.37553883 </v>
   <v>       0.37500000       0.12500000       0.87553883 </v>
   <v>       0.37500000       0.62500000       0.37553883 </v>
   <v>       0.37500000       0.62500000       0.87553883 </v>
   <v>       0.87500000       0.12500000       0.37553883 </v>
   <v>       0.87500000       0.12500000       0.87553883 </v>
   <v>       0.87500000       0.62500000       0.37553883 </v>
   <v>       0.87500000       0.62500000       0.87553883 </v>
   <v>       0.25000000       0.00000000       0.24946117 </v>
   <v>       0.25000000       0.00000000       0.74946117 </v>
   <v>       0.25000000       0.50000000       0.24946117 </v>
   <v>       0.25000000       0.50000000       0.74946117 </v>
   <v>       0.75000000       0.00000000       0.24946117 </v>
   <v>       0.75000000       0.00000000       0.74946117 </v>
   <v>       0.75000000       0.50000000       0.24946117 </v>
   <v>       0.75000000       0.50000000       0.74946117 </v>
   <v>       0.12500000       0.37500000       0.37553883 </v>
   <v>       0.12500000       0.37500000       0.87553883 </v>
   <v>       0.12500000       0.87500000       0.37553883 </v>
   <v>       0.12500000       0.87500000       0.87553883 </v>
   <v>       0.62500000       0.37500000       0.37553883 </v>
   <v>       0.62500000       0.37500000       0.87553883 </v>
   <v>       0.62500000       0.87500000       0.37553883 </v>
   <v>       0.62500000       0.87500000       0.87553883 </v>
   <v>       0.25000000       0.25000000       0.99946117 </v>
   <v>       0.25000000       0.25000000       0.49946117 </v>
   <v>       0.25000000       0.75000000       0.99946117 </v>
   <v>       0.25000000       0.75000000       0.49946117 </v>
   <v>       0.75000000       0.25000000       0.99946117 </v>
   <v>       0.75000000       0.25000000       0.49946117 </v>
   <v>       0.75000000       0.75000000       0.99946117 </v>
   <v>       0.75000000       0.75000000       0.49946117 </v>
   <v>       0.12500000       0.12500000       0.12553883 </v>
   <v>       0.12500000       0.12500000       0.62553883 </v>
   <v>       0.12500000       0.62500000       0.12553883 </v>
   <v>       0.12500000       0.62500000       0.62553883 </v>
   <v>       0.62500000       0.12500000       0.12553883 </v>
   <v>       0.62500000       0.12500000       0.62553883 </v>
   <v>       0.62500000       0.62500000       0.12553883 </v>
   <v>       0.62500000       0.62500000       0.62553883 </v>
  </varray>
 </structure>
</modeling>
